<?xml version="1.0" encoding="UTF-8"?>

<!-- generated on 2026-03-17 22:31:54 by Eclipse SUMO sumo Version 1.24.0
<sumoConfiguration xmlns:xsi="http://www.w3.org/2001/XMLSchema-instance" xsi:noNamespaceSchemaLocation="http://sumo.dlr.de/xsd/sumoConfiguration.xsd">

    <input>
        <net-file value="map.net.xml"/>
        <route-files value="simulation.rou.xml"/>
    </input>

    <output>
        <tripinfo-output value="tripinfo_old.xml"/>
    </output>

    <report>
        <duration-log.statistics value="true"/>
    </report>

</sumoConfiguration>
-->

<tripinfos xmlns:xsi="http://www.w3.org/2001/XMLSchema-instance" xsi:noNamespaceSchemaLocation="http://sumo.dlr.de/xsd/tripinfo_file.xsd">
    <tripinfo id="veh4" depart="2.00" departLane="749406407#0_0" departPos="5.10" departSpeed="0.00" departDelay="0.00" arrival="16.00" arrivalLane="749407285_0" arrivalPos="21.46" arrivalSpeed="13.05" duration="14.00" routeLength="136.78" waitingTime="0.00" waitingCount="0" stopTime="0.00" timeLoss="3.92" rerouteNo="0" devices="tripinfo_veh4" vType="car" speedFactor="1.03" vaporized=""/>
    <tripinfo id="veh46" depart="23.00" departLane="802399798#1_0" departPos="5.10" departSpeed="0.00" departDelay="0.00" arrival="30.00" arrivalLane="802399798#2_0" arrivalPos="10.44" arrivalSpeed="13.22" duration="7.00" routeLength="43.23" waitingTime="0.00" waitingCount="0" stopTime="0.00" timeLoss="3.02" rerouteNo="0" devices="tripinfo_veh46" vType="car" speedFactor="1.00" vaporized=""/>
    <tripinfo id="veh1" depart="1.00" departLane="-338648528#6_0" departPos="5.10" departSpeed="0.00" departDelay="0.50" arrival="32.00" arrivalLane="802516063_0" arrivalPos="44.97" arrivalSpeed="24.93" duration="31.00" routeLength="388.03" waitingTime="0.00" waitingCount="0" stopTime="0.00" timeLoss="13.84" rerouteNo="0" devices="tripinfo_veh1" vType="car" speedFactor="0.94" vaporized=""/>
    <tripinfo id="veh30" depart="15.00" departLane="345390443#1_0" departPos="0.20" departSpeed="0.00" departDelay="0.00" arrival="32.00" arrivalLane="-345390443#2_0" arrivalPos="61.01" arrivalSpeed="15.51" duration="17.00" routeLength="140.77" waitingTime="0.00" waitingCount="0" stopTime="0.00" timeLoss="7.53" rerouteNo="0" devices="tripinfo_veh30" vType="car" speedFactor="1.18" vaporized=""/>
    <tripinfo id="veh10" depart="5.00" departLane="-1209732955_0" departPos="5.10" departSpeed="0.00" departDelay="0.00" arrival="41.00" arrivalLane="-338648528#8_0" arrivalPos="3.84" arrivalSpeed="30.25" duration="36.00" routeLength="540.91" waitingTime="0.00" waitingCount="0" stopTime="0.00" timeLoss="13.24" rerouteNo="0" devices="tripinfo_veh10" vType="car" speedFactor="1.09" vaporized=""/>
    <tripinfo id="veh19" depart="10.00" departLane="-802486170#1_0" departPos="5.10" departSpeed="0.00" departDelay="0.50" arrival="47.00" arrivalLane="1458438168_0" arrivalPos="42.15" arrivalSpeed="14.96" duration="37.00" routeLength="424.41" waitingTime="0.00" waitingCount="0" stopTime="0.00" timeLoss="9.47" rerouteNo="0" devices="tripinfo_veh19" vType="car" speedFactor="1.16" vaporized=""/>
    <tripinfo id="veh27" depart="14.00" departLane="-345390444_0" departPos="5.10" departSpeed="0.00" departDelay="0.50" arrival="48.00" arrivalLane="338648528#10_0" arrivalPos="19.61" arrivalSpeed="25.74" duration="34.00" routeLength="412.83" waitingTime="0.00" waitingCount="0" stopTime="0.00" timeLoss="8.90" rerouteNo="0" devices="tripinfo_veh27" vType="car" speedFactor="0.95" vaporized=""/>
    <tripinfo id="veh2" depart="1.00" departLane="-344129938#3_0" departPos="5.10" departSpeed="0.00" departDelay="0.00" arrival="52.00" arrivalLane="-1377702599_0" arrivalPos="38.72" arrivalSpeed="11.52" duration="51.00" routeLength="423.48" waitingTime="0.00" waitingCount="0" stopTime="0.00" timeLoss="17.73" rerouteNo="0" devices="tripinfo_veh2" vType="car" speedFactor="1.01" vaporized=""/>
    <tripinfo id="veh11" depart="6.00" departLane="-344126032_0" departPos="5.10" departSpeed="0.00" departDelay="0.50" arrival="59.00" arrivalLane="1458156154_0" arrivalPos="5.76" arrivalSpeed="10.90" duration="53.00" routeLength="334.94" waitingTime="11.00" waitingCount="1" stopTime="0.00" timeLoss="26.49" rerouteNo="0" devices="tripinfo_veh11" vType="car" speedFactor="1.03" vaporized=""/>
    <tripinfo id="veh8" depart="4.00" departLane="-746834592#0_0" departPos="5.10" departSpeed="0.00" departDelay="0.00" arrival="69.00" arrivalLane="122488406#3_0" arrivalPos="70.38" arrivalSpeed="6.40" duration="65.00" routeLength="698.04" waitingTime="0.00" waitingCount="0" stopTime="0.00" timeLoss="20.88" rerouteNo="0" devices="tripinfo_veh8" vType="car" speedFactor="0.94" vaporized=""/>
    <tripinfo id="veh34" depart="17.00" departLane="-344129938#1_0" departPos="5.10" departSpeed="0.00" departDelay="0.00" arrival="69.00" arrivalLane="344126024#3_0" arrivalPos="25.85" arrivalSpeed="12.70" duration="52.00" routeLength="535.67" waitingTime="0.00" waitingCount="0" stopTime="0.00" timeLoss="10.47" rerouteNo="0" devices="tripinfo_veh34" vType="car" speedFactor="0.99" vaporized=""/>
    <tripinfo id="veh29" depart="15.00" departLane="1459998823#4_0" departPos="1.50" departSpeed="0.00" departDelay="0.50" arrival="72.00" arrivalLane="-802516067#0_0" arrivalPos="6.02" arrivalSpeed="2.11" duration="57.00" routeLength="545.77" waitingTime="0.00" waitingCount="0" stopTime="0.00" timeLoss="16.51" rerouteNo="0" devices="tripinfo_veh29" vType="car" speedFactor="0.93" vaporized=""/>
    <tripinfo id="veh0" depart="0.00" departLane="-265229350#3_0" departPos="5.10" departSpeed="0.00" departDelay="0.00" arrival="74.00" arrivalLane="1459998823#2_0" arrivalPos="0.20" arrivalSpeed="5.88" duration="74.00" routeLength="875.60" waitingTime="2.00" waitingCount="1" stopTime="0.00" timeLoss="23.01" rerouteNo="0" devices="tripinfo_veh0" vType="car" speedFactor="1.06" vaporized=""/>
    <tripinfo id="veh20" depart="10.00" departLane="-1458334191#0_0" departPos="5.10" departSpeed="0.00" departDelay="0.00" arrival="75.00" arrivalLane="746560519#1_0" arrivalPos="17.60" arrivalSpeed="13.73" duration="65.00" routeLength="785.96" waitingTime="0.00" waitingCount="0" stopTime="0.00" timeLoss="14.29" rerouteNo="0" devices="tripinfo_veh20" vType="car" speedFactor="1.02" vaporized=""/>
    <tripinfo id="veh28" depart="15.00" departLane="338648528#8_0" departPos="3.84" departSpeed="0.00" departDelay="1.00" arrival="79.00" arrivalLane="802399774#2_0" arrivalPos="34.55" arrivalSpeed="12.83" duration="64.00" routeLength="864.61" waitingTime="0.00" waitingCount="0" stopTime="0.00" timeLoss="24.92" rerouteNo="0" devices="tripinfo_veh28" vType="car" speedFactor="1.13" vaporized=""/>
    <tripinfo id="veh36" depart="18.00" departLane="802516059#1_0" departPos="5.10" departSpeed="0.00" departDelay="0.00" arrival="88.00" arrivalLane="1209728804_0" arrivalPos="16.48" arrivalSpeed="2.00" duration="70.00" routeLength="569.86" waitingTime="0.00" waitingCount="0" stopTime="0.00" timeLoss="19.39" rerouteNo="0" devices="tripinfo_veh36" vType="car" speedFactor="0.97" vaporized=""/>
    <tripinfo id="veh9" depart="5.00" departLane="-802516073_0" departPos="5.10" departSpeed="0.00" departDelay="0.50" arrival="90.00" arrivalLane="-743160793#1_0" arrivalPos="18.80" arrivalSpeed="7.86" duration="85.00" routeLength="755.88" waitingTime="8.00" waitingCount="1" stopTime="0.00" timeLoss="34.48" rerouteNo="0" devices="tripinfo_veh9" vType="car" speedFactor="0.86" vaporized=""/>
    <tripinfo id="veh23" depart="13.00" departLane="-344215905#2_0" departPos="5.10" departSpeed="0.00" departDelay="1.50" arrival="92.00" arrivalLane="-745591121#1_0" arrivalPos="88.54" arrivalSpeed="11.21" duration="79.00" routeLength="812.19" waitingTime="0.00" waitingCount="0" stopTime="0.00" timeLoss="19.91" rerouteNo="0" devices="tripinfo_veh23" vType="car" speedFactor="0.89" vaporized=""/>
    <tripinfo id="veh5" depart="3.00" departLane="-344126029#5_0" departPos="5.10" departSpeed="0.00" departDelay="0.50" arrival="96.00" arrivalLane="-802399779#0_0" arrivalPos="84.48" arrivalSpeed="10.59" duration="93.00" routeLength="975.82" waitingTime="2.00" waitingCount="1" stopTime="0.00" timeLoss="24.58" rerouteNo="0" devices="tripinfo_veh5" vType="car" speedFactor="0.83" vaporized=""/>
    <tripinfo id="veh84" depart="42.00" departLane="802516068#0_0" departPos="5.10" departSpeed="0.00" departDelay="0.00" arrival="98.00" arrivalLane="-802486169#0_0" arrivalPos="34.09" arrivalSpeed="11.56" duration="56.00" routeLength="481.28" waitingTime="0.00" waitingCount="0" stopTime="0.00" timeLoss="15.98" rerouteNo="0" devices="tripinfo_veh84" vType="car" speedFactor="0.97" vaporized=""/>
    <tripinfo id="veh118" depart="59.00" departLane="1459998823#1_0" departPos="5.10" departSpeed="0.00" departDelay="0.00" arrival="99.00" arrivalLane="-802399779#1_0" arrivalPos="39.95" arrivalSpeed="13.15" duration="40.00" routeLength="408.09" waitingTime="0.00" waitingCount="0" stopTime="0.00" timeLoss="14.16" rerouteNo="0" devices="tripinfo_veh118" vType="car" speedFactor="1.00" vaporized=""/>
    <tripinfo id="veh35" depart="18.00" departLane="746834592#0_0" departPos="5.10" departSpeed="0.00" departDelay="0.50" arrival="100.00" arrivalLane="1377702599_0" arrivalPos="38.68" arrivalSpeed="6.60" duration="82.00" routeLength="818.16" waitingTime="0.00" waitingCount="0" stopTime="0.00" timeLoss="23.04" rerouteNo="0" devices="tripinfo_veh35" vType="car" speedFactor="1.02" vaporized=""/>
    <tripinfo id="veh61" depart="31.00" departLane="-802516061_0" departPos="5.10" departSpeed="0.00" departDelay="0.50" arrival="102.00" arrivalLane="-743160793#3_0" arrivalPos="238.57" arrivalSpeed="12.52" duration="71.00" routeLength="742.62" waitingTime="0.00" waitingCount="0" stopTime="0.00" timeLoss="20.71" rerouteNo="0" devices="tripinfo_veh61" vType="car" speedFactor="1.12" vaporized=""/>
    <tripinfo id="veh93" depart="47.00" departLane="-930291020#0_0" departPos="0.20" departSpeed="0.00" departDelay="0.50" arrival="103.00" arrivalLane="906594466_0" arrivalPos="14.91" arrivalSpeed="10.21" duration="56.00" routeLength="585.04" waitingTime="0.00" waitingCount="0" stopTime="0.00" timeLoss="13.95" rerouteNo="0" devices="tripinfo_veh93" vType="car" speedFactor="0.83" vaporized=""/>
    <tripinfo id="veh47" depart="24.00" departLane="-802516069_0" departPos="5.10" departSpeed="0.00" departDelay="0.50" arrival="104.00" arrivalLane="1459998823#5_0" arrivalPos="0.20" arrivalSpeed="3.84" duration="80.00" routeLength="710.47" waitingTime="10.00" waitingCount="1" stopTime="0.00" timeLoss="41.33" rerouteNo="0" devices="tripinfo_veh47" vType="car" speedFactor="0.90" vaporized=""/>
    <tripinfo id="veh70" depart="35.00" departLane="-1050839645_0" departPos="5.10" departSpeed="0.00" departDelay="0.00" arrival="104.00" arrivalLane="-802399774#1_0" arrivalPos="44.99" arrivalSpeed="13.14" duration="69.00" routeLength="730.88" waitingTime="0.00" waitingCount="0" stopTime="0.00" timeLoss="20.97" rerouteNo="0" devices="tripinfo_veh70" vType="car" speedFactor="1.02" vaporized=""/>
    <tripinfo id="veh58" depart="29.00" departLane="-743160793#3_0" departPos="5.10" departSpeed="0.00" departDelay="0.00" arrival="105.00" arrivalLane="-745591121#0_0" arrivalPos="142.10" arrivalSpeed="13.49" duration="76.00" routeLength="877.22" waitingTime="0.00" waitingCount="0" stopTime="0.00" timeLoss="10.66" rerouteNo="0" devices="tripinfo_veh58" vType="car" speedFactor="1.02" vaporized=""/>
    <tripinfo id="veh102" depart="51.00" departLane="-344129938#1_0" departPos="5.10" departSpeed="0.00" departDelay="0.00" arrival="105.00" arrivalLane="-1377702598#1_0" arrivalPos="126.44" arrivalSpeed="12.39" duration="54.00" routeLength="529.42" waitingTime="0.00" waitingCount="0" stopTime="0.00" timeLoss="11.72" rerouteNo="0" devices="tripinfo_veh102" vType="car" speedFactor="0.96" vaporized=""/>
    <tripinfo id="veh127" depart="64.00" departLane="-1050839645_0" departPos="5.10" departSpeed="0.00" departDelay="0.50" arrival="108.00" arrivalLane="1458334191#0_0" arrivalPos="34.30" arrivalSpeed="11.58" duration="44.00" routeLength="387.89" waitingTime="0.00" waitingCount="0" stopTime="0.00" timeLoss="20.15" rerouteNo="0" devices="tripinfo_veh127" vType="car" speedFactor="1.03" vaporized=""/>
    <tripinfo id="veh63" depart="33.00" departLane="338648528#10_0" departPos="5.10" departSpeed="0.00" departDelay="1.50" arrival="109.00" arrivalLane="-897966736_0" arrivalPos="20.70" arrivalSpeed="4.58" duration="76.00" routeLength="676.93" waitingTime="3.00" waitingCount="2" stopTime="0.00" timeLoss="36.93" rerouteNo="0" devices="tripinfo_veh63" vType="car" speedFactor="0.99" vaporized=""/>
    <tripinfo id="veh101" depart="51.00" departLane="802516068#0_0" departPos="5.10" departSpeed="0.00" departDelay="0.50" arrival="111.00" arrivalLane="802399774#2_0" arrivalPos="34.55" arrivalSpeed="13.91" duration="60.00" routeLength="620.73" waitingTime="0.00" waitingCount="0" stopTime="0.00" timeLoss="14.64" rerouteNo="0" devices="tripinfo_veh101" vType="car" speedFactor="1.06" vaporized=""/>
    <tripinfo id="veh24" depart="12.00" departLane="930291019#1_0" departPos="0.20" departSpeed="0.00" departDelay="0.00" arrival="114.00" arrivalLane="-1459998823#5_0" arrivalPos="0.20" arrivalSpeed="21.06" duration="102.00" routeLength="1381.37" waitingTime="0.00" waitingCount="0" stopTime="0.00" timeLoss="22.08" rerouteNo="0" devices="tripinfo_veh24" vType="car" speedFactor="0.83" vaporized=""/>
    <tripinfo id="veh26" depart="13.00" departLane="-749653881#1_0" departPos="5.10" departSpeed="0.00" departDelay="0.00" arrival="115.00" arrivalLane="1458334191#4_0" arrivalPos="990.33" arrivalSpeed="24.58" duration="102.00" routeLength="1876.03" waitingTime="0.00" waitingCount="0" stopTime="0.00" timeLoss="14.12" rerouteNo="0" devices="tripinfo_veh26" vType="car" speedFactor="0.92" vaporized=""/>
    <tripinfo id="veh83" depart="42.00" departLane="-1459114486_0" departPos="5.10" departSpeed="0.00" departDelay="0.50" arrival="115.00" arrivalLane="265229350#9_0" arrivalPos="18.02" arrivalSpeed="12.83" duration="73.00" routeLength="614.89" waitingTime="0.00" waitingCount="0" stopTime="0.00" timeLoss="14.14" rerouteNo="0" devices="tripinfo_veh83" vType="car" speedFactor="1.02" vaporized=""/>
    <tripinfo id="veh54" depart="27.00" departLane="-338648528#4_0" departPos="5.10" departSpeed="0.00" departDelay="0.00" arrival="116.00" arrivalLane="-897966736_0" arrivalPos="20.70" arrivalSpeed="13.87" duration="89.00" routeLength="1227.13" waitingTime="0.00" waitingCount="0" stopTime="0.00" timeLoss="29.91" rerouteNo="0" devices="tripinfo_veh54" vType="car" speedFactor="1.00" vaporized=""/>
    <tripinfo id="veh106" depart="53.00" departLane="1458156153#2_0" departPos="5.10" departSpeed="0.00" departDelay="0.00" arrival="121.00" arrivalLane="-344126024#0_0" arrivalPos="270.57" arrivalSpeed="13.96" duration="68.00" routeLength="764.07" waitingTime="0.00" waitingCount="0" stopTime="0.00" timeLoss="21.07" rerouteNo="0" devices="tripinfo_veh106" vType="car" speedFactor="1.07" vaporized=""/>
    <tripinfo id="veh41" depart="21.00" departLane="-344126024#4_0" departPos="5.10" departSpeed="0.00" departDelay="0.50" arrival="122.00" arrivalLane="-749406407#1_0" arrivalPos="19.22" arrivalSpeed="12.63" duration="101.00" routeLength="1038.98" waitingTime="4.00" waitingCount="1" stopTime="0.00" timeLoss="31.04" rerouteNo="0" devices="tripinfo_veh41" vType="car" speedFactor="0.96" vaporized=""/>
    <tripinfo id="veh166" depart="83.00" departLane="1458156149#1_0" departPos="5.10" departSpeed="0.00" departDelay="0.00" arrival="122.00" arrivalLane="749653881#1_0" arrivalPos="16.89" arrivalSpeed="13.83" duration="39.00" routeLength="231.24" waitingTime="4.00" waitingCount="1" stopTime="0.00" timeLoss="13.25" rerouteNo="0" devices="tripinfo_veh166" vType="car" speedFactor="1.05" vaporized=""/>
    <tripinfo id="veh143" depart="72.00" departLane="-345390445#1_0" departPos="5.10" departSpeed="0.00" departDelay="0.50" arrival="128.00" arrivalLane="-344074132#1_0" arrivalPos="106.17" arrivalSpeed="12.21" duration="56.00" routeLength="615.68" waitingTime="0.00" waitingCount="0" stopTime="0.00" timeLoss="7.13" rerouteNo="0" devices="tripinfo_veh143" vType="car" speedFactor="0.94" vaporized=""/>
    <tripinfo id="veh39" depart="20.00" departLane="-338648528#7_0" departPos="5.10" departSpeed="0.00" departDelay="0.50" arrival="129.00" arrivalLane="-802399777#1_0" arrivalPos="130.91" arrivalSpeed="11.25" duration="109.00" routeLength="1131.71" waitingTime="2.00" waitingCount="2" stopTime="0.00" timeLoss="39.33" rerouteNo="0" devices="tripinfo_veh39" vType="car" speedFactor="0.90" vaporized=""/>
    <tripinfo id="veh14" depart="7.00" departLane="-749697301_0" departPos="5.10" departSpeed="0.00" departDelay="0.00" arrival="133.00" arrivalLane="-1209729506_0" arrivalPos="42.20" arrivalSpeed="2.06" duration="126.00" routeLength="1079.53" waitingTime="0.00" waitingCount="0" stopTime="0.00" timeLoss="31.19" rerouteNo="0" devices="tripinfo_veh14" vType="car" speedFactor="0.99" vaporized=""/>
    <tripinfo id="veh153" depart="77.00" departLane="-1458334191#1_0" departPos="5.10" departSpeed="0.00" departDelay="0.50" arrival="133.00" arrivalLane="1458334191#4_0" arrivalPos="990.33" arrivalSpeed="26.84" duration="56.00" routeLength="1158.96" waitingTime="0.00" waitingCount="0" stopTime="0.00" timeLoss="12.14" rerouteNo="0" devices="tripinfo_veh153" vType="car" speedFactor="1.00" vaporized=""/>
    <tripinfo id="veh254" depart="127.00" departLane="338648528#7_0" departPos="5.10" departSpeed="0.00" departDelay="0.00" arrival="133.00" arrivalLane="338648528#8_0" arrivalPos="3.84" arrivalSpeed="10.07" duration="6.00" routeLength="32.95" waitingTime="0.00" waitingCount="0" stopTime="0.00" timeLoss="4.74" rerouteNo="0" devices="tripinfo_veh254" vType="car" speedFactor="0.99" vaporized=""/>
    <tripinfo id="veh148" depart="74.00" departLane="802386809_0" departPos="5.10" departSpeed="0.00" departDelay="0.00" arrival="135.00" arrivalLane="338648528#8_0" arrivalPos="3.84" arrivalSpeed="15.48" duration="61.00" routeLength="646.88" waitingTime="0.00" waitingCount="0" stopTime="0.00" timeLoss="15.72" rerouteNo="0" devices="tripinfo_veh148" vType="car" speedFactor="1.00" vaporized=""/>
    <tripinfo id="veh110" depart="55.00" departLane="-802765343_0" departPos="5.10" departSpeed="0.00" departDelay="0.00" arrival="137.00" arrivalLane="-1207396415_0" arrivalPos="20.05" arrivalSpeed="1.99" duration="82.00" routeLength="607.24" waitingTime="2.00" waitingCount="1" stopTime="0.00" timeLoss="24.68" rerouteNo="0" devices="tripinfo_veh110" vType="car" speedFactor="0.96" vaporized=""/>
    <tripinfo id="veh152" depart="76.00" departLane="-802486169#0_0" departPos="5.10" departSpeed="0.00" departDelay="0.00" arrival="137.00" arrivalLane="749653880_0" arrivalPos="63.74" arrivalSpeed="13.33" duration="61.00" routeLength="384.45" waitingTime="10.00" waitingCount="2" stopTime="0.00" timeLoss="29.34" rerouteNo="0" devices="tripinfo_veh152" vType="car" speedFactor="0.96" vaporized=""/>
    <tripinfo id="veh202" depart="101.00" departLane="-802399799_0" departPos="5.10" departSpeed="0.00" departDelay="0.00" arrival="138.00" arrivalLane="746834592#1_0" arrivalPos="38.31" arrivalSpeed="12.82" duration="37.00" routeLength="269.21" waitingTime="0.00" waitingCount="0" stopTime="0.00" timeLoss="12.86" rerouteNo="0" devices="tripinfo_veh202" vType="car" speedFactor="0.95" vaporized=""/>
    <tripinfo id="veh18" depart="9.00" departLane="802399773_0" departPos="5.10" departSpeed="0.00" departDelay="0.00" arrival="144.00" arrivalLane="345390443#1_0" arrivalPos="0.20" arrivalSpeed="12.34" duration="135.00" routeLength="1020.11" waitingTime="37.00" waitingCount="2" stopTime="0.00" timeLoss="75.44" rerouteNo="0" devices="tripinfo_veh18" vType="car" speedFactor="0.94" vaporized=""/>
    <tripinfo id="veh59" depart="30.00" departLane="344126029#7_0" departPos="5.10" departSpeed="0.00" departDelay="0.50" arrival="148.00" arrivalLane="-345390443#1_0" arrivalPos="0.20" arrivalSpeed="3.32" duration="118.00" routeLength="924.06" waitingTime="39.00" waitingCount="2" stopTime="0.00" timeLoss="71.56" rerouteNo="0" devices="tripinfo_veh59" vType="car" speedFactor="0.97" vaporized=""/>
    <tripinfo id="veh188" depart="95.00" departLane="-1458334191#3_0" departPos="5.10" departSpeed="0.00" departDelay="1.00" arrival="148.00" arrivalLane="-802399798#0_0" arrivalPos="67.53" arrivalSpeed="13.97" duration="53.00" routeLength="546.93" waitingTime="0.00" waitingCount="0" stopTime="0.00" timeLoss="13.07" rerouteNo="0" devices="tripinfo_veh188" vType="car" speedFactor="1.08" vaporized=""/>
    <tripinfo id="veh187" depart="94.00" departLane="746834591_0" departPos="5.10" departSpeed="0.00" departDelay="0.50" arrival="149.00" arrivalLane="344215905#1_0" arrivalPos="22.63" arrivalSpeed="10.42" duration="55.00" routeLength="437.44" waitingTime="0.00" waitingCount="0" stopTime="0.00" timeLoss="15.47" rerouteNo="0" devices="tripinfo_veh187" vType="car" speedFactor="0.92" vaporized=""/>
    <tripinfo id="veh32" depart="16.00" departLane="847580334#0_0" departPos="5.10" departSpeed="0.00" departDelay="0.00" arrival="151.00" arrivalLane="802399776_0" arrivalPos="109.35" arrivalSpeed="13.81" duration="135.00" routeLength="1822.14" waitingTime="1.00" waitingCount="1" stopTime="0.00" timeLoss="33.15" rerouteNo="0" devices="tripinfo_veh32" vType="car" speedFactor="1.01" vaporized=""/>
    <tripinfo id="veh104" depart="52.00" departLane="802399779#0_0" departPos="5.10" departSpeed="0.00" departDelay="0.00" arrival="151.00" arrivalLane="1377702599_0" arrivalPos="38.68" arrivalSpeed="11.42" duration="99.00" routeLength="876.84" waitingTime="5.00" waitingCount="2" stopTime="0.00" timeLoss="37.52" rerouteNo="0" devices="tripinfo_veh104" vType="car" speedFactor="0.95" vaporized=""/>
    <tripinfo id="veh65" depart="33.00" departLane="1459998823#1_0" departPos="5.10" departSpeed="0.00" departDelay="0.50" arrival="153.00" arrivalLane="802516059#1_0" arrivalPos="95.58" arrivalSpeed="4.69" duration="120.00" routeLength="414.78" waitingTime="73.00" waitingCount="2" stopTime="0.00" timeLoss="92.22" rerouteNo="0" devices="tripinfo_veh65" vType="car" speedFactor="0.88" vaporized=""/>
    <tripinfo id="veh222" depart="111.00" departLane="-1377702598#0_0" departPos="5.10" departSpeed="0.00" departDelay="0.00" arrival="154.00" arrivalLane="344129938#1_0" arrivalPos="80.18" arrivalSpeed="13.77" duration="43.00" routeLength="432.12" waitingTime="0.00" waitingCount="0" stopTime="0.00" timeLoss="10.00" rerouteNo="0" devices="tripinfo_veh222" vType="car" speedFactor="1.00" vaporized=""/>
    <tripinfo id="veh121" depart="61.00" departLane="1082081940_0" departPos="5.10" departSpeed="0.00" departDelay="0.50" arrival="155.00" arrivalLane="345390446_0" arrivalPos="52.92" arrivalSpeed="13.02" duration="94.00" routeLength="921.16" waitingTime="8.00" waitingCount="1" stopTime="0.00" timeLoss="27.36" rerouteNo="0" devices="tripinfo_veh121" vType="car" speedFactor="0.94" vaporized=""/>
    <tripinfo id="veh146" depart="118.00" departLane="-338648528#7_0" departPos="5.10" departSpeed="0.00" departDelay="45.00" arrival="156.00" arrivalLane="338648528#2_0" arrivalPos="115.45" arrivalSpeed="21.14" duration="38.00" routeLength="546.13" waitingTime="0.00" waitingCount="0" stopTime="0.00" timeLoss="19.74" rerouteNo="0" devices="tripinfo_veh146" vType="car" speedFactor="1.14" vaporized=""/>
    <tripinfo id="veh204" depart="102.00" departLane="802412032#1_0" departPos="5.10" departSpeed="0.00" departDelay="0.00" arrival="156.00" arrivalLane="-345387880_0" arrivalPos="146.41" arrivalSpeed="13.21" duration="54.00" routeLength="515.11" waitingTime="0.00" waitingCount="0" stopTime="0.00" timeLoss="15.50" rerouteNo="0" devices="tripinfo_veh204" vType="car" speedFactor="1.03" vaporized=""/>
    <tripinfo id="veh252" depart="126.00" departLane="-802399778_0" departPos="5.10" departSpeed="0.00" departDelay="0.00" arrival="156.00" arrivalLane="-802399774#1_0" arrivalPos="44.99" arrivalSpeed="11.98" duration="30.00" routeLength="234.53" waitingTime="0.00" waitingCount="0" stopTime="0.00" timeLoss="9.70" rerouteNo="0" devices="tripinfo_veh252" vType="car" speedFactor="0.93" vaporized=""/>
    <tripinfo id="veh171" depart="128.00" departLane="1459998823#5_0" departPos="0.20" departSpeed="0.00" departDelay="42.50" arrival="158.00" arrivalLane="344215905#0_0" arrivalPos="58.36" arrivalSpeed="12.87" duration="30.00" routeLength="403.64" waitingTime="0.00" waitingCount="0" stopTime="0.00" timeLoss="10.09" rerouteNo="0" devices="tripinfo_veh171" vType="car" speedFactor="0.94" vaporized=""/>
    <tripinfo id="veh262" depart="131.00" departLane="-802399778_0" departPos="5.10" departSpeed="0.00" departDelay="0.00" arrival="158.00" arrivalLane="-802399774#2_0" arrivalPos="34.55" arrivalSpeed="9.58" duration="27.00" routeLength="175.55" waitingTime="0.00" waitingCount="0" stopTime="0.00" timeLoss="7.80" rerouteNo="0" devices="tripinfo_veh262" vType="car" speedFactor="0.75" vaporized=""/>
    <tripinfo id="veh81" depart="41.00" departLane="338648528#6_0" departPos="5.10" departSpeed="0.00" departDelay="0.50" arrival="161.00" arrivalLane="345391008#1_0" arrivalPos="85.20" arrivalSpeed="6.29" duration="120.00" routeLength="283.95" waitingTime="73.00" waitingCount="2" stopTime="0.00" timeLoss="99.05" rerouteNo="0" devices="tripinfo_veh81" vType="car" speedFactor="1.03" vaporized=""/>
    <tripinfo id="veh227" depart="114.00" departLane="-746834592#0_0" departPos="5.10" departSpeed="0.00" departDelay="0.50" arrival="161.00" arrivalLane="1458334191#2_0" arrivalPos="23.44" arrivalSpeed="7.21" duration="47.00" routeLength="349.34" waitingTime="3.00" waitingCount="1" stopTime="0.00" timeLoss="20.06" rerouteNo="0" devices="tripinfo_veh227" vType="car" speedFactor="0.97" vaporized=""/>
    <tripinfo id="veh240" depart="120.00" departLane="-802399774#0_0" departPos="5.10" departSpeed="0.00" departDelay="0.00" arrival="161.00" arrivalLane="-802516059#0_0" arrivalPos="64.13" arrivalSpeed="14.37" duration="41.00" routeLength="333.88" waitingTime="0.00" waitingCount="0" stopTime="0.00" timeLoss="16.02" rerouteNo="0" devices="tripinfo_veh240" vType="car" speedFactor="1.10" vaporized=""/>
    <tripinfo id="veh274" depart="137.00" departLane="-802516074#1_0" departPos="5.10" departSpeed="0.00" departDelay="0.00" arrival="161.00" arrivalLane="802516074#1_0" arrivalPos="105.06" arrivalSpeed="13.87" duration="24.00" routeLength="206.14" waitingTime="0.00" waitingCount="0" stopTime="0.00" timeLoss="8.25" rerouteNo="0" devices="tripinfo_veh274" vType="car" speedFactor="1.05" vaporized=""/>
    <tripinfo id="veh64" depart="34.00" departLane="802399799_0" departPos="5.10" departSpeed="0.00" departDelay="2.00" arrival="162.00" arrivalLane="345387880_0" arrivalPos="146.41" arrivalSpeed="11.76" duration="128.00" routeLength="1282.67" waitingTime="6.00" waitingCount="1" stopTime="0.00" timeLoss="28.75" rerouteNo="0" devices="tripinfo_veh64" vType="car" speedFactor="0.94" vaporized=""/>
    <tripinfo id="veh144" depart="72.00" departLane="-345390444_0" departPos="5.10" departSpeed="0.00" departDelay="0.00" arrival="162.00" arrivalLane="-338648528#5_0" arrivalPos="4.12" arrivalSpeed="6.22" duration="90.00" routeLength="230.45" waitingTime="53.00" waitingCount="2" stopTime="0.00" timeLoss="74.54" rerouteNo="0" devices="tripinfo_veh144" vType="car" speedFactor="1.13" vaporized=""/>
    <tripinfo id="veh98" depart="51.00" departLane="-1459114486_0" departPos="5.10" departSpeed="0.00" departDelay="2.00" arrival="165.00" arrivalLane="1458334191#3_0" arrivalPos="7.85" arrivalSpeed="25.10" duration="114.00" routeLength="949.63" waitingTime="2.00" waitingCount="1" stopTime="0.00" timeLoss="28.46" rerouteNo="0" devices="tripinfo_veh98" vType="car" speedFactor="0.91" vaporized=""/>
    <tripinfo id="veh85" depart="43.00" departLane="802516069_0" departPos="5.10" departSpeed="0.00" departDelay="0.50" arrival="166.00" arrivalLane="-345390442#1_0" arrivalPos="179.93" arrivalSpeed="14.75" duration="123.00" routeLength="750.69" waitingTime="51.00" waitingCount="1" stopTime="0.00" timeLoss="81.06" rerouteNo="0" devices="tripinfo_veh85" vType="car" speedFactor="1.15" vaporized=""/>
    <tripinfo id="veh263" depart="132.00" departLane="344126029#6_0" departPos="5.10" departSpeed="0.00" departDelay="0.50" arrival="166.00" arrivalLane="-802516059#1_0" arrivalPos="93.10" arrivalSpeed="15.04" duration="34.00" routeLength="363.45" waitingTime="0.00" waitingCount="0" stopTime="0.00" timeLoss="10.72" rerouteNo="0" devices="tripinfo_veh263" vType="car" speedFactor="1.13" vaporized=""/>
    <tripinfo id="veh234" depart="117.00" departLane="-802765343_0" departPos="5.10" departSpeed="0.00" departDelay="0.00" arrival="167.00" arrivalLane="1459998823#0_0" arrivalPos="21.46" arrivalSpeed="15.38" duration="50.00" routeLength="502.98" waitingTime="0.00" waitingCount="0" stopTime="0.00" timeLoss="13.21" rerouteNo="0" devices="tripinfo_veh234" vType="car" speedFactor="0.97" vaporized=""/>
    <tripinfo id="veh251" depart="126.00" departLane="345391009#0_0" departPos="5.10" departSpeed="0.00" departDelay="0.50" arrival="168.00" arrivalLane="1204149318_0" arrivalPos="212.07" arrivalSpeed="14.90" duration="42.00" routeLength="425.35" waitingTime="0.00" waitingCount="0" stopTime="0.00" timeLoss="12.27" rerouteNo="0" devices="tripinfo_veh251" vType="car" speedFactor="1.11" vaporized=""/>
    <tripinfo id="veh147" depart="74.00" departLane="-1050840917_0" departPos="5.10" departSpeed="0.00" departDelay="0.50" arrival="170.00" arrivalLane="345391008#0_0" arrivalPos="172.36" arrivalSpeed="12.24" duration="96.00" routeLength="1012.30" waitingTime="0.00" waitingCount="0" stopTime="0.00" timeLoss="12.31" rerouteNo="0" devices="tripinfo_veh147" vType="car" speedFactor="0.89" vaporized=""/>