<?xml version="1.0" encoding="UTF-8"?>

<!-- generated on 2026-03-17 22:32:33 by Eclipse SUMO sumo Version 1.24.0
<sumoConfiguration xmlns:xsi="http://www.w3.org/2001/XMLSchema-instance" xsi:noNamespaceSchemaLocation="http://sumo.dlr.de/xsd/sumoConfiguration.xsd">

    <input>
        <net-file value="best_map.net.xml"/>
        <route-files value="simulation_optimized.rou.xml"/>
    </input>

    <output>
        <tripinfo-output value="tripinfo_new.xml"/>
    </output>

    <report>
        <duration-log.statistics value="true"/>
    </report>

</sumoConfiguration>
-->

<tripinfos xmlns:xsi="http://www.w3.org/2001/XMLSchema-instance" xsi:noNamespaceSchemaLocation="http://sumo.dlr.de/xsd/tripinfo_file.xsd">
    <tripinfo id="veh4" depart="2.00" departLane="749406407#0_0" departPos="5.10" departSpeed="0.00" departDelay="0.00" arrival="17.00" arrivalLane="749407285_0" arrivalPos="19.13" arrivalSpeed="13.92" duration="15.00" routeLength="136.66" waitingTime="0.00" waitingCount="0" stopTime="0.00" timeLoss="4.29" rerouteNo="0" devices="tripinfo_veh4" vType="car" speedFactor="1.03" vaporized=""/>
    <tripinfo id="veh46" depart="23.00" departLane="802399798#1_0" departPos="5.10" departSpeed="0.00" departDelay="0.00" arrival="30.00" arrivalLane="802399798#2_0" arrivalPos="10.44" arrivalSpeed="13.52" duration="7.00" routeLength="43.24" waitingTime="0.00" waitingCount="0" stopTime="0.00" timeLoss="3.20" rerouteNo="0" devices="tripinfo_veh46" vType="car" speedFactor="1.00" vaporized=""/>
    <tripinfo id="veh30" depart="15.00" departLane="345390443#1_0" departPos="0.20" departSpeed="0.00" departDelay="0.00" arrival="32.00" arrivalLane="-345390443#2_0" arrivalPos="61.00" arrivalSpeed="16.11" duration="17.00" routeLength="140.75" waitingTime="0.00" waitingCount="0" stopTime="0.00" timeLoss="7.02" rerouteNo="0" devices="tripinfo_veh30" vType="car" speedFactor="1.18" vaporized=""/>
    <tripinfo id="veh1" depart="1.00" departLane="-338648528#6_0" departPos="5.10" departSpeed="0.00" departDelay="0.50" arrival="33.00" arrivalLane="802516063_0" arrivalPos="44.97" arrivalSpeed="22.25" duration="32.00" routeLength="388.02" waitingTime="0.00" waitingCount="0" stopTime="0.00" timeLoss="14.98" rerouteNo="0" devices="tripinfo_veh1" vType="car" speedFactor="0.94" vaporized=""/>
    <tripinfo id="veh10" depart="5.00" departLane="-1209732955_0" departPos="5.10" departSpeed="0.00" departDelay="0.00" arrival="41.00" arrivalLane="-338648528#8_0" arrivalPos="3.84" arrivalSpeed="30.12" duration="36.00" routeLength="540.92" waitingTime="0.00" waitingCount="0" stopTime="0.00" timeLoss="13.28" rerouteNo="0" devices="tripinfo_veh10" vType="car" speedFactor="1.09" vaporized=""/>
    <tripinfo id="veh19" depart="10.00" departLane="-802486170#1_0" departPos="5.10" departSpeed="0.00" departDelay="0.50" arrival="46.00" arrivalLane="1458438168_0" arrivalPos="42.14" arrivalSpeed="16.05" duration="36.00" routeLength="424.41" waitingTime="0.00" waitingCount="0" stopTime="0.00" timeLoss="8.37" rerouteNo="0" devices="tripinfo_veh19" vType="car" speedFactor="1.16" vaporized=""/>
    <tripinfo id="veh27" depart="14.00" departLane="-345390444_0" departPos="5.10" departSpeed="0.00" departDelay="0.50" arrival="48.00" arrivalLane="338648528#10_0" arrivalPos="19.61" arrivalSpeed="25.40" duration="34.00" routeLength="412.83" waitingTime="0.00" waitingCount="0" stopTime="0.00" timeLoss="9.04" rerouteNo="0" devices="tripinfo_veh27" vType="car" speedFactor="0.95" vaporized=""/>
    <tripinfo id="veh2" depart="1.00" departLane="-344129938#3_0" departPos="5.10" departSpeed="0.00" departDelay="0.00" arrival="52.00" arrivalLane="-1377702599_0" arrivalPos="38.71" arrivalSpeed="12.72" duration="51.00" routeLength="423.46" waitingTime="0.00" waitingCount="0" stopTime="0.00" timeLoss="17.94" rerouteNo="0" devices="tripinfo_veh2" vType="car" speedFactor="1.01" vaporized=""/>
    <tripinfo id="veh29" depart="15.00" departLane="1459998823#4_0" departPos="1.50" departSpeed="0.00" departDelay="0.50" arrival="68.00" arrivalLane="-802516067#0_0" arrivalPos="6.02" arrivalSpeed="1.33" duration="53.00" routeLength="545.77" waitingTime="0.00" waitingCount="0" stopTime="0.00" timeLoss="12.70" rerouteNo="0" devices="tripinfo_veh29" vType="car" speedFactor="0.93" vaporized=""/>
    <tripinfo id="veh34" depart="17.00" departLane="-344129938#1_0" departPos="5.10" departSpeed="0.00" departDelay="0.00" arrival="69.00" arrivalLane="344126024#3_0" arrivalPos="25.86" arrivalSpeed="13.41" duration="52.00" routeLength="535.68" waitingTime="0.00" waitingCount="0" stopTime="0.00" timeLoss="10.42" rerouteNo="0" devices="tripinfo_veh34" vType="car" speedFactor="0.99" vaporized=""/>
    <tripinfo id="veh8" depart="4.00" departLane="-746834592#0_0" departPos="5.10" departSpeed="0.00" departDelay="0.00" arrival="70.00" arrivalLane="122488406#3_0" arrivalPos="70.37" arrivalSpeed="6.92" duration="66.00" routeLength="698.03" waitingTime="0.00" waitingCount="0" stopTime="0.00" timeLoss="21.12" rerouteNo="0" devices="tripinfo_veh8" vType="car" speedFactor="0.94" vaporized=""/>
    <tripinfo id="veh20" depart="10.00" departLane="-1458334191#0_0" departPos="5.10" departSpeed="0.00" departDelay="0.00" arrival="74.00" arrivalLane="746560519#1_0" arrivalPos="17.60" arrivalSpeed="13.51" duration="64.00" routeLength="785.97" waitingTime="0.00" waitingCount="0" stopTime="0.00" timeLoss="13.06" rerouteNo="0" devices="tripinfo_veh20" vType="car" speedFactor="1.02" vaporized=""/>
    <tripinfo id="veh65" depart="35.00" departLane="1459998823#1_0" departPos="5.10" departSpeed="0.00" departDelay="2.50" arrival="76.00" arrivalLane="802516059#1_0" arrivalPos="95.57" arrivalSpeed="11.98" duration="41.00" routeLength="414.78" waitingTime="0.00" waitingCount="0" stopTime="0.00" timeLoss="12.03" rerouteNo="0" devices="tripinfo_veh65" vType="car" speedFactor="0.88" vaporized=""/>
    <tripinfo id="veh28" depart="15.00" departLane="338648528#8_0" departPos="3.84" departSpeed="0.00" departDelay="1.00" arrival="78.00" arrivalLane="802399774#2_0" arrivalPos="34.55" arrivalSpeed="11.50" duration="63.00" routeLength="864.62" waitingTime="0.00" waitingCount="0" stopTime="0.00" timeLoss="24.70" rerouteNo="0" devices="tripinfo_veh28" vType="car" speedFactor="1.13" vaporized=""/>
    <tripinfo id="veh9" depart="5.00" departLane="-802516073_0" departPos="5.10" departSpeed="0.00" departDelay="0.50" arrival="84.00" arrivalLane="-743160793#1_0" arrivalPos="18.80" arrivalSpeed="7.58" duration="79.00" routeLength="755.87" waitingTime="3.00" waitingCount="1" stopTime="0.00" timeLoss="29.94" rerouteNo="0" devices="tripinfo_veh9" vType="car" speedFactor="0.86" vaporized=""/>
    <tripinfo id="veh23" depart="13.00" departLane="-344215905#2_0" departPos="5.10" departSpeed="0.00" departDelay="1.50" arrival="93.00" arrivalLane="-745591121#1_0" arrivalPos="88.54" arrivalSpeed="11.93" duration="80.00" routeLength="812.19" waitingTime="0.00" waitingCount="0" stopTime="0.00" timeLoss="20.95" rerouteNo="0" devices="tripinfo_veh23" vType="car" speedFactor="0.89" vaporized=""/>
    <tripinfo id="veh84" depart="42.00" departLane="802516068#0_0" departPos="5.10" departSpeed="0.00" departDelay="0.00" arrival="95.00" arrivalLane="-802486169#0_0" arrivalPos="19.32" arrivalSpeed="8.56" duration="53.00" routeLength="452.07" waitingTime="0.00" waitingCount="0" stopTime="0.00" timeLoss="15.34" rerouteNo="0" devices="tripinfo_veh84" vType="car" speedFactor="0.97" vaporized=""/>
    <tripinfo id="veh35" depart="18.00" departLane="746834592#0_0" departPos="5.10" departSpeed="0.00" departDelay="0.50" arrival="96.00" arrivalLane="1377702599_0" arrivalPos="38.68" arrivalSpeed="13.38" duration="78.00" routeLength="818.16" waitingTime="0.00" waitingCount="0" stopTime="0.00" timeLoss="17.97" rerouteNo="0" devices="tripinfo_veh35" vType="car" speedFactor="1.02" vaporized=""/>
    <tripinfo id="veh47" depart="26.00" departLane="-802516069_0" departPos="5.10" departSpeed="0.00" departDelay="2.50" arrival="96.00" arrivalLane="1459998823#5_0" arrivalPos="0.20" arrivalSpeed="2.19" duration="70.00" routeLength="710.45" waitingTime="0.00" waitingCount="0" stopTime="0.00" timeLoss="30.40" rerouteNo="0" devices="tripinfo_veh47" vType="car" speedFactor="0.90" vaporized=""/>
    <tripinfo id="veh118" depart="59.00" departLane="1459998823#1_0" departPos="5.10" departSpeed="0.00" departDelay="0.00" arrival="100.00" arrivalLane="-802399779#1_0" arrivalPos="39.96" arrivalSpeed="13.69" duration="41.00" routeLength="408.11" waitingTime="0.00" waitingCount="0" stopTime="0.00" timeLoss="16.27" rerouteNo="0" devices="tripinfo_veh118" vType="car" speedFactor="1.00" vaporized=""/>
    <tripinfo id="veh61" depart="31.00" departLane="-802516061_0" departPos="5.10" departSpeed="0.00" departDelay="0.50" arrival="103.00" arrivalLane="-743160793#3_0" arrivalPos="238.57" arrivalSpeed="14.78" duration="72.00" routeLength="742.61" waitingTime="1.00" waitingCount="1" stopTime="0.00" timeLoss="20.06" rerouteNo="0" devices="tripinfo_veh61" vType="car" speedFactor="1.12" vaporized=""/>
    <tripinfo id="veh93" depart="47.00" departLane="-930291020#0_0" departPos="0.20" departSpeed="0.00" departDelay="0.50" arrival="103.00" arrivalLane="906594466_0" arrivalPos="14.90" arrivalSpeed="9.34" duration="56.00" routeLength="582.76" waitingTime="0.00" waitingCount="0" stopTime="0.00" timeLoss="14.45" rerouteNo="0" devices="tripinfo_veh93" vType="car" speedFactor="0.83" vaporized=""/>
    <tripinfo id="veh102" depart="51.00" departLane="-344129938#1_0" departPos="5.10" departSpeed="0.00" departDelay="0.00" arrival="104.00" arrivalLane="-1377702598#1_0" arrivalPos="126.43" arrivalSpeed="12.98" duration="53.00" routeLength="529.41" waitingTime="0.00" waitingCount="0" stopTime="0.00" timeLoss="10.37" rerouteNo="0" devices="tripinfo_veh102" vType="car" speedFactor="0.96" vaporized=""/>
    <tripinfo id="veh58" depart="29.00" departLane="-743160793#3_0" departPos="5.10" departSpeed="0.00" departDelay="0.00" arrival="105.00" arrivalLane="-745591121#0_0" arrivalPos="142.10" arrivalSpeed="14.18" duration="76.00" routeLength="877.21" waitingTime="0.00" waitingCount="0" stopTime="0.00" timeLoss="11.11" rerouteNo="0" devices="tripinfo_veh58" vType="car" speedFactor="1.02" vaporized=""/>
    <tripinfo id="veh70" depart="35.00" departLane="-1050839645_0" departPos="5.10" departSpeed="0.00" departDelay="0.00" arrival="108.00" arrivalLane="-802399774#1_0" arrivalPos="44.98" arrivalSpeed="14.09" duration="73.00" routeLength="730.88" waitingTime="2.00" waitingCount="1" stopTime="0.00" timeLoss="25.05" rerouteNo="0" devices="tripinfo_veh70" vType="car" speedFactor="1.02" vaporized=""/>
    <tripinfo id="veh127" depart="64.00" departLane="-1050839645_0" departPos="5.10" departSpeed="0.00" departDelay="0.50" arrival="108.00" arrivalLane="1458334191#0_0" arrivalPos="34.30" arrivalSpeed="13.18" duration="44.00" routeLength="387.89" waitingTime="0.00" waitingCount="0" stopTime="0.00" timeLoss="19.78" rerouteNo="0" devices="tripinfo_veh127" vType="car" speedFactor="1.03" vaporized=""/>
    <tripinfo id="veh101" depart="51.00" departLane="802516068#0_0" departPos="5.10" departSpeed="0.00" departDelay="0.50" arrival="110.00" arrivalLane="802399774#2_0" arrivalPos="34.55" arrivalSpeed="14.13" duration="59.00" routeLength="620.73" waitingTime="0.00" waitingCount="0" stopTime="0.00" timeLoss="14.70" rerouteNo="0" devices="tripinfo_veh101" vType="car" speedFactor="1.06" vaporized=""/>
    <tripinfo id="veh63" depart="33.00" departLane="338648528#10_0" departPos="5.10" departSpeed="0.00" departDelay="1.50" arrival="111.00" arrivalLane="-897966736_0" arrivalPos="20.70" arrivalSpeed="8.58" duration="78.00" routeLength="676.91" waitingTime="5.00" waitingCount="3" stopTime="0.00" timeLoss="38.55" rerouteNo="0" devices="tripinfo_veh63" vType="car" speedFactor="0.99" vaporized=""/>
    <tripinfo id="veh26" depart="13.00" departLane="-749653881#1_0" departPos="5.10" departSpeed="0.00" departDelay="0.00" arrival="115.00" arrivalLane="1458334191#4_0" arrivalPos="990.33" arrivalSpeed="25.36" duration="102.00" routeLength="1876.03" waitingTime="0.00" waitingCount="0" stopTime="0.00" timeLoss="15.20" rerouteNo="0" devices="tripinfo_veh26" vType="car" speedFactor="0.92" vaporized=""/>
    <tripinfo id="veh54" depart="27.00" departLane="-338648528#4_0" departPos="5.10" departSpeed="0.00" departDelay="0.00" arrival="120.00" arrivalLane="-897966736_0" arrivalPos="20.70" arrivalSpeed="13.42" duration="93.00" routeLength="1227.11" waitingTime="0.00" waitingCount="0" stopTime="0.00" timeLoss="33.61" rerouteNo="0" devices="tripinfo_veh54" vType="car" speedFactor="1.00" vaporized=""/>
    <tripinfo id="veh106" depart="53.00" departLane="1458156153#2_0" departPos="5.10" departSpeed="0.00" departDelay="0.00" arrival="121.00" arrivalLane="-344126024#0_0" arrivalPos="270.57" arrivalSpeed="14.56" duration="68.00" routeLength="764.05" waitingTime="0.00" waitingCount="0" stopTime="0.00" timeLoss="20.82" rerouteNo="0" devices="tripinfo_veh106" vType="car" speedFactor="1.07" vaporized=""/>
    <tripinfo id="veh166" depart="83.00" departLane="1458156149#1_0" departPos="5.10" departSpeed="0.00" departDelay="0.00" arrival="125.00" arrivalLane="749653881#1_0" arrivalPos="16.89" arrivalSpeed="13.77" duration="42.00" routeLength="231.24" waitingTime="6.00" waitingCount="1" stopTime="0.00" timeLoss="16.09" rerouteNo="0" devices="tripinfo_veh166" vType="car" speedFactor="1.05" vaporized=""/>
    <tripinfo id="veh83" depart="42.00" departLane="-1459114486_0" departPos="5.10" departSpeed="0.00" departDelay="0.50" arrival="127.00" arrivalLane="265229350#9_0" arrivalPos="18.02" arrivalSpeed="13.24" duration="85.00" routeLength="614.90" waitingTime="0.00" waitingCount="0" stopTime="0.00" timeLoss="25.70" rerouteNo="0" devices="tripinfo_veh83" vType="car" speedFactor="1.02" vaporized=""/>
    <tripinfo id="veh143" depart="72.00" departLane="-345390445#1_0" departPos="5.10" departSpeed="0.00" departDelay="0.50" arrival="128.00" arrivalLane="-344074132#1_0" arrivalPos="106.67" arrivalSpeed="11.96" duration="56.00" routeLength="616.15" waitingTime="0.00" waitingCount="0" stopTime="0.00" timeLoss="6.81" rerouteNo="0" devices="tripinfo_veh143" vType="car" speedFactor="0.94" vaporized=""/>
    <tripinfo id="veh153" depart="77.00" departLane="-1458334191#1_0" departPos="5.10" departSpeed="0.00" departDelay="0.50" arrival="132.00" arrivalLane="1458334191#4_0" arrivalPos="990.33" arrivalSpeed="27.31" duration="55.00" routeLength="1158.97" waitingTime="0.00" waitingCount="0" stopTime="0.00" timeLoss="11.75" rerouteNo="0" devices="tripinfo_veh153" vType="car" speedFactor="1.00" vaporized=""/>
    <tripinfo id="veh39" depart="20.00" departLane="-338648528#7_0" departPos="5.10" departSpeed="0.00" departDelay="0.50" arrival="134.00" arrivalLane="-802399777#1_0" arrivalPos="130.91" arrivalSpeed="12.49" duration="114.00" routeLength="1131.70" waitingTime="3.00" waitingCount="2" stopTime="0.00" timeLoss="44.65" rerouteNo="0" devices="tripinfo_veh39" vType="car" speedFactor="0.90" vaporized=""/>
    <tripinfo id="veh202" depart="101.00" departLane="-802399799_0" departPos="5.10" departSpeed="0.00" departDelay="0.00" arrival="137.00" arrivalLane="746834592#1_0" arrivalPos="38.31" arrivalSpeed="11.88" duration="36.00" routeLength="269.21" waitingTime="0.00" waitingCount="0" stopTime="0.00" timeLoss="12.54" rerouteNo="0" devices="tripinfo_veh202" vType="car" speedFactor="0.95" vaporized=""/>
    <tripinfo id="veh254" depart="132.00" departLane="338648528#7_0" departPos="5.10" departSpeed="0.00" departDelay="5.00" arrival="137.00" arrivalLane="338648528#8_0" arrivalPos="3.84" arrivalSpeed="11.26" duration="5.00" routeLength="32.94" waitingTime="0.00" waitingCount="0" stopTime="0.00" timeLoss="3.78" rerouteNo="0" devices="tripinfo_veh254" vType="car" speedFactor="0.99" vaporized=""/>
    <tripinfo id="veh0" depart="0.00" departLane="-265229350#3_0" departPos="5.10" departSpeed="0.00" departDelay="0.00" arrival="138.00" arrivalLane="1459998823#2_0" arrivalPos="0.20" arrivalSpeed="3.64" duration="138.00" routeLength="875.59" waitingTime="66.00" waitingCount="1" stopTime="0.00" timeLoss="87.71" rerouteNo="0" devices="tripinfo_veh0" vType="car" speedFactor="1.06" vaporized=""/>
    <tripinfo id="veh36" depart="18.00" departLane="802516059#1_0" departPos="5.10" departSpeed="0.00" departDelay="0.00" arrival="138.00" arrivalLane="1209728804_0" arrivalPos="16.48" arrivalSpeed="1.91" duration="120.00" routeLength="569.85" waitingTime="38.00" waitingCount="3" stopTime="0.00" timeLoss="69.91" rerouteNo="0" devices="tripinfo_veh36" vType="car" speedFactor="0.97" vaporized=""/>
    <tripinfo id="veh14" depart="7.00" departLane="-749697301_0" departPos="5.10" departSpeed="0.00" departDelay="0.00" arrival="141.00" arrivalLane="-1209729506_0" arrivalPos="42.20" arrivalSpeed="2.17" duration="134.00" routeLength="1079.54" waitingTime="0.00" waitingCount="0" stopTime="0.00" timeLoss="38.72" rerouteNo="0" devices="tripinfo_veh14" vType="car" speedFactor="0.99" vaporized=""/>
    <tripinfo id="veh152" depart="76.00" departLane="-802486169#0_0" departPos="5.10" departSpeed="0.00" departDelay="0.00" arrival="141.00" arrivalLane="749653880_0" arrivalPos="63.76" arrivalSpeed="13.36" duration="65.00" routeLength="369.68" waitingTime="7.00" waitingCount="3" stopTime="0.00" timeLoss="34.35" rerouteNo="0" devices="tripinfo_veh152" vType="car" speedFactor="0.96" vaporized=""/>
    <tripinfo id="veh110" depart="55.00" departLane="-802765343_0" departPos="5.10" departSpeed="0.00" departDelay="0.00" arrival="143.00" arrivalLane="-1207396415_0" arrivalPos="20.05" arrivalSpeed="2.13" duration="88.00" routeLength="607.24" waitingTime="6.00" waitingCount="1" stopTime="0.00" timeLoss="30.55" rerouteNo="0" devices="tripinfo_veh110" vType="car" speedFactor="0.96" vaporized=""/>
    <tripinfo id="veh121" depart="61.00" departLane="1082081940_0" departPos="5.10" departSpeed="0.00" departDelay="0.50" arrival="146.00" arrivalLane="345390446_0" arrivalPos="52.92" arrivalSpeed="12.59" duration="85.00" routeLength="917.86" waitingTime="0.00" waitingCount="0" stopTime="0.00" timeLoss="18.19" rerouteNo="0" devices="tripinfo_veh121" vType="car" speedFactor="0.94" vaporized=""/>
    <tripinfo id="veh81" depart="41.00" departLane="338648528#6_0" departPos="5.10" departSpeed="0.00" departDelay="0.50" arrival="147.00" arrivalLane="345391008#1_0" arrivalPos="85.20" arrivalSpeed="7.58" duration="106.00" routeLength="283.94" waitingTime="62.00" waitingCount="2" stopTime="0.00" timeLoss="84.75" rerouteNo="0" devices="tripinfo_veh81" vType="car" speedFactor="1.03" vaporized=""/>
    <tripinfo id="veh188" depart="95.00" departLane="-1458334191#3_0" departPos="5.10" departSpeed="0.00" departDelay="1.00" arrival="147.00" arrivalLane="-802399798#0_0" arrivalPos="67.53" arrivalSpeed="14.76" duration="52.00" routeLength="546.92" waitingTime="0.00" waitingCount="0" stopTime="0.00" timeLoss="12.75" rerouteNo="0" devices="tripinfo_veh188" vType="car" speedFactor="1.08" vaporized=""/>
    <tripinfo id="veh187" depart="94.00" departLane="746834591_0" departPos="5.10" departSpeed="0.00" departDelay="0.50" arrival="150.00" arrivalLane="344215905#1_0" arrivalPos="22.63" arrivalSpeed="10.25" duration="56.00" routeLength="437.45" waitingTime="0.00" waitingCount="0" stopTime="0.00" timeLoss="16.42" rerouteNo="0" devices="tripinfo_veh187" vType="car" speedFactor="0.92" vaporized=""/>
    <tripinfo id="veh222" depart="111.00" departLane="-1377702598#0_0" departPos="5.10" departSpeed="0.00" departDelay="0.00" arrival="153.00" arrivalLane="344129938#1_0" arrivalPos="80.18" arrivalSpeed="12.94" duration="42.00" routeLength="432.12" waitingTime="0.00" waitingCount="0" stopTime="0.00" timeLoss="8.74" rerouteNo="0" devices="tripinfo_veh222" vType="car" speedFactor="1.00" vaporized=""/>
    <tripinfo id="veh252" depart="126.00" departLane="-802399778_0" departPos="5.10" departSpeed="0.00" departDelay="0.00" arrival="153.00" arrivalLane="-802399774#1_0" arrivalPos="44.98" arrivalSpeed="12.46" duration="27.00" routeLength="234.52" waitingTime="0.00" waitingCount="0" stopTime="0.00" timeLoss="7.86" rerouteNo="0" devices="tripinfo_veh252" vType="car" speedFactor="0.93" vaporized=""/>
    <tripinfo id="veh227" depart="114.00" departLane="-746834592#0_0" departPos="5.10" departSpeed="0.00" departDelay="0.50" arrival="155.00" arrivalLane="1458334191#2_0" arrivalPos="23.44" arrivalSpeed="10.35" duration="41.00" routeLength="349.34" waitingTime="0.00" waitingCount="0" stopTime="0.00" timeLoss="13.81" rerouteNo="0" devices="tripinfo_veh227" vType="car" speedFactor="0.97" vaporized=""/>
    <tripinfo id="veh236" depart="127.00" departLane="338648528#3_0" departPos="1.35" departSpeed="0.00" departDelay="9.00" arrival="155.00" arrivalLane="847580334#0_0" arrivalPos="273.18" arrivalSpeed="12.37" duration="28.00" routeLength="296.61" waitingTime="0.00" waitingCount="0" stopTime="0.00" timeLoss="3.59" rerouteNo="0" devices="tripinfo_veh236" vType="car" speedFactor="0.91" vaporized=""/>
    <tripinfo id="veh148" depart="74.00" departLane="802386809_0" departPos="5.10" departSpeed="0.00" departDelay="0.00" arrival="156.00" arrivalLane="338648528#8_0" arrivalPos="3.84" arrivalSpeed="18.48" duration="82.00" routeLength="646.88" waitingTime="18.00" waitingCount="1" stopTime="0.00" timeLoss="35.70" rerouteNo="0" devices="tripinfo_veh148" vType="car" speedFactor="1.00" vaporized=""/>
    <tripinfo id="veh204" depart="102.00" departLane="802412032#1_0" departPos="5.10" departSpeed="0.00" departDelay="0.00" arrival="156.00" arrivalLane="-345387880_0" arrivalPos="146.41" arrivalSpeed="14.13" duration="54.00" routeLength="515.10" waitingTime="0.00" waitingCount="0" stopTime="0.00" timeLoss="15.38" rerouteNo="0" devices="tripinfo_veh204" vType="car" speedFactor="1.03" vaporized=""/>
    <tripinfo id="veh262" depart="131.00" departLane="-802399778_0" departPos="5.10" departSpeed="0.00" departDelay="0.00" arrival="158.00" arrivalLane="-802399774#2_0" arrivalPos="34.55" arrivalSpeed="10.34" duration="27.00" routeLength="175.55" waitingTime="0.00" waitingCount="0" stopTime="0.00" timeLoss="7.97" rerouteNo="0" devices="tripinfo_veh262" vType="car" speedFactor="0.75" vaporized=""/>
    <tripinfo id="veh240" depart="120.00" departLane="-802399774#0_0" departPos="5.10" departSpeed="0.00" departDelay="0.00" arrival="159.00" arrivalLane="-802516059#0_0" arrivalPos="64.14" arrivalSpeed="14.05" duration="39.00" routeLength="333.92" waitingTime="0.00" waitingCount="0" stopTime="0.00" timeLoss="13.98" rerouteNo="0" devices="tripinfo_veh240" vType="car" speedFactor="1.10" vaporized=""/>
    <tripinfo id="veh274" depart="137.00" departLane="-802516074#1_0" departPos="5.10" departSpeed="0.00" departDelay="0.00" arrival="159.00" arrivalLane="802516074#1_0" arrivalPos="105.07" arrivalSpeed="13.35" duration="22.00" routeLength="206.15" waitingTime="0.00" waitingCount="0" stopTime="0.00" timeLoss="7.02" rerouteNo="0" devices="tripinfo_veh274" vType="car" speedFactor="1.05" vaporized=""/>
    <tripinfo id="veh169" depart="86.00" departLane="-746560519#1_0" departPos="5.10" departSpeed="0.00" departDelay="1.50" arrival="164.00" arrivalLane="802399779#1_0" arrivalPos="34.71" arrivalSpeed="14.15" duration="78.00" routeLength="862.66" waitingTime="0.00" waitingCount="0" stopTime="0.00" timeLoss="15.90" rerouteNo="0" devices="tripinfo_veh169" vType="car" speedFactor="1.03" vaporized=""/>
    <tripinfo id="veh98" depart="52.00" departLane="-1459114486_0" departPos="5.10" departSpeed="0.00" departDelay="3.00" arrival="166.00" arrivalLane="1458334191#3_0" arrivalPos="7.85" arrivalSpeed="22.91" duration="114.00" routeLength="949.66" waitingTime="0.00" waitingCount="0" stopTime="0.00" timeLoss="28.39" rerouteNo="0" devices="tripinfo_veh98" vType="car" speedFactor="0.91" vaporized=""/>
    <tripinfo id="veh234" depart="117.00" departLane="-802765343_0" departPos="5.10" departSpeed="0.00" departDelay="0.00" arrival="166.00" arrivalLane="1459998823#0_0" arrivalPos="21.46" arrivalSpeed="17.58" duration="49.00" routeLength="502.98" waitingTime="0.00" waitingCount="0" stopTime="0.00" timeLoss="12.14" rerouteNo="0" devices="tripinfo_veh234" vType="car" speedFactor="0.97" vaporized=""/>
    <tripinfo id="veh18" depart="9.00" departLane="802399773_0" departPos="5.10" departSpeed="0.00" departDelay="0.00" arrival="167.00" arrivalLane="345390443#1_0" arrivalPos="0.20" arrivalSpeed="12.47" duration="158.00" routeLength="1020.17" waitingTime="63.00" waitingCount="3" stopTime="0.00" timeLoss="99.85" rerouteNo="0" devices="tripinfo_veh18" vType="car" speedFactor="0.94" vaporized=""/>
    <tripinfo id="veh64" depart="34.00" departLane="802399799_0" departPos="5.10" departSpeed="0.00" departDelay="2.00" arrival="167.00" arrivalLane="345387880_0" arrivalPos="146.42" arrivalSpeed="12.97" duration="133.00" routeLength="1282.69" waitingTime="4.00" waitingCount="1" stopTime="0.00" timeLoss="33.44" rerouteNo="0" devices="tripinfo_veh64" vType="car" speedFactor="0.94" vaporized=""/>
    <tripinfo id="veh251" depart="126.00" departLane="345391009#0_0" departPos="5.10" departSpeed="0.00" departDelay="0.50" arrival="167.00" arrivalLane="1204149318_0" arrivalPos="208.83" arrivalSpeed="15.14" duration="41.00" routeLength="421.42" waitingTime="0.00" waitingCount="0" stopTime="0.00" timeLoss="12.29" rerouteNo="0" devices="tripinfo_veh251" vType="car" speedFactor="1.11" vaporized=""/>
    <tripinfo id="veh171" depart="86.00" departLane="1459998823#5_0" departPos="0.20" departSpeed="0.00" departDelay="0.50" arrival="169.00" arrivalLane="344215905#0_0" arrivalPos="58.36" arrivalSpeed="12.74" duration="83.00" routeLength="403.64" waitingTime="42.00" waitingCount="1" stopTime="0.00" timeLoss="63.05" rerouteNo="0" devices="tripinfo_veh171" vType="car" speedFactor="0.94" vaporized=""/>
    <tripinfo id="veh97" depart="57.00" departLane="-746560520#1_0" departPos="0.20" departSpeed="0.00" departDelay="8.50" arrival="170.00" arrivalLane="344215905#1_0" arrivalPos="22.63" arrivalSpeed="13.81" duration="113.00" routeLength="860.40" waitingTime="23.00" waitingCount="2" stopTime="0.00" timeLoss="59.30" rerouteNo="0" devices="tripinfo_veh97" vType="car" speedFactor="1.01" vaporized=""/>
    <tripinfo id="veh230" depart="115.00" departLane="-746560520#3_0" departPos="5.10" departSpeed="0.00" departDelay="0.00" arrival="170.00" arrivalLane="-802386806#0_0" arrivalPos="310.08" arrivalSpeed="14.93" duration="55.00" routeLength="676.09" waitingTime="0.00" waitingCount="0" stopTime="0.00" timeLoss="9.40" rerouteNo="0" devices="tripinfo_veh230" vType="car" speedFactor="1.09" vaporized=""/>
    <tripinfo id="veh147" depart="74.00" departLane="-1050840917_0" departPos="5.10" departSpeed="0.00" departDelay="0.50" arrival="171.00" arrivalLane="345391008#0_0" arrivalPos="172.35" arrivalSpeed="11.95" duration="97.00" routeLength="1006.94" waitingTime="0.00" waitingCount="0" stopTime="0.00" timeLoss="12.11" rerouteNo="0" devices="tripinfo_veh147" vType="car" speedFactor="0.89" vaporized=""/>
    <tripinfo id="veh201" depart="101.00" departLane="1209729127_0" departPos="5.10" departSpeed="0.00" departDelay="0.50" arrival="171.00" arrivalLane="-1458438161_0" arrivalPos="22.94" arrivalSpeed="1.62" duration="70.00" routeLength="278.73" waitingTime="0.00" waitingCount="0" stopTime="0.00" timeLoss="23.37" rerouteNo="0" devices="tripinfo_veh201" vType="car" speedFactor="0.83" vaporized=""/>
    <tripinfo id="veh211" depart="108.00" departLane="1377702599_0" departPos="5.10" departSpeed="0.00" departDelay="2.50" arrival="172.00" arrivalLane="344126029#1_0" arrivalPos="14.30" arrivalSpeed="7.50" duration="64.00" routeLength="609.65" waitingTime="2.00" waitingCount="1" stopTime="0.00" timeLoss="16.06" rerouteNo="0" devices="tripinfo_veh211" vType="car" speedFactor="0.98" vaporized=""/>
    <tripinfo id="veh209" depart="105.00" departLane="-344126024#0_0" departPos="5.10" departSpeed="0.00" departDelay="0.50" arrival="173.00" arrivalLane="-802399774#0_0" arrivalPos="29.08" arrivalSpeed="13.49" duration="68.00" routeLength="736.00" waitingTime="0.00" waitingCount="0" stopTime="0.00" timeLoss="13.82" rerouteNo="0" devices="tripinfo_veh209" vType="car" speedFactor="0.97" vaporized=""/>
    <tripinfo id="veh59" depart="30.00" departLane="344126029#7_0" departPos="5.10" departSpeed="0.00" departDelay="0.50" arrival="174.00" arrivalLane="-345390443#1_0" arrivalPos="0.20" arrivalSpeed="2.60" duration="144.00" routeLength="924.07" waitingTime="60.00" waitingCount="2" stopTime="0.00" timeLoss="98.15" rerouteNo="0" devices="tripinfo_veh59" vType="car" speedFactor="0.97" vaporized=""/>
    <tripinfo id="veh146" depart="124.00" departLane="-338648528#7_0" departPos="5.10" departSpeed="0.00" departDelay="51.00" arrival="179.00" arrivalLane="338648528#2_0" arrivalPos="115.45" arrivalSpeed="22.68" duration="55.00" routeLength="546.11" waitingTime="9.00" waitingCount="1" stopTime="0.00" timeLoss="36.51" rerouteNo="0" devices="tripinfo_veh146" vType="car" speedFactor="1.14" vaporized=""/>
    <tripinfo id="veh186" depart="93.00" departLane="338648528#3_0" departPos="1.35" departSpeed="0.00" departDelay="0.00" arrival="179.00" arrivalLane="-345390447#0_0" arrivalPos="180.72" arrivalSpeed="12.77" duration="86.00" routeLength="911.36" waitingTime="0.00" waitingCount="0" stopTime="0.00" timeLoss="19.50" rerouteNo="0" devices="tripinfo_veh186" vType="car" speedFactor="0.94" vaporized=""/>
    <tripinfo id="veh24" depart="12.00" departLane="930291019#1_0" departPos="0.20" departSpeed="0.00" departDelay="0.00" arrival="181.00" arrivalLane="-1459998823#5_0" arrivalPos="0.20" arrivalSpeed="20.35" duration="169.00" routeLength="1385.91" waitingTime="53.00" waitingCount="1" stopTime="0.00" timeLoss="89.11" rerouteNo="0" devices="tripinfo_veh24" vType="car" speedFactor="0.83" vaporized=""/>