<?xml version="1.0" encoding="UTF-8"?>

<!-- generated on 2026-03-18 00:30:00 by Eclipse SUMO sumo Version 1.24.0
<sumoConfiguration xmlns:xsi="http://www.w3.org/2001/XMLSchema-instance" xsi:noNamespaceSchemaLocation="http://sumo.dlr.de/xsd/sumoConfiguration.xsd">

    <input>
        <net-file value="best_map.net.xml"/>
        <route-files value="simulation_optimized.rou.xml"/>
    </input>

    <output>
        <tripinfo-output value="tripinfo_new.xml"/>
    </output>

    <report>
        <duration-log.statistics value="true"/>
    </report>

</sumoConfiguration>
-->

<tripinfos xmlns:xsi="http://www.w3.org/2001/XMLSchema-instance" xsi:noNamespaceSchemaLocation="http://sumo.dlr.de/xsd/tripinfo_file.xsd">
    <tripinfo id="veh41" depart="21.00" departLane="1458224698_0" departPos="5.10" departSpeed="0.00" departDelay="0.50" arrival="49.00" arrivalLane="906594466_0" arrivalPos="14.90" arrivalSpeed="10.88" duration="28.00" routeLength="439.02" waitingTime="0.00" waitingCount="0" stopTime="0.00" timeLoss="9.20" rerouteNo="0" devices="tripinfo_veh41" vType="car" speedFactor="0.96" vaporized=""/>
    <tripinfo id="veh14" depart="7.00" departLane="-338648528#12_0" departPos="5.10" departSpeed="0.00" departDelay="0.00" arrival="50.00" arrivalLane="1459998823#4_0" arrivalPos="0.20" arrivalSpeed="3.21" duration="43.00" routeLength="587.40" waitingTime="1.00" waitingCount="1" stopTime="0.00" timeLoss="19.45" rerouteNo="0" devices="tripinfo_veh14" vType="car" speedFactor="0.99" vaporized=""/>
    <tripinfo id="veh0" depart="0.00" departLane="338648528#6_0" departPos="5.10" departSpeed="0.00" departDelay="0.00" arrival="55.00" arrivalLane="345390447#0_0" arrivalPos="180.91" arrivalSpeed="13.83" duration="55.00" routeLength="579.77" waitingTime="0.00" waitingCount="0" stopTime="0.00" timeLoss="13.53" rerouteNo="0" devices="tripinfo_veh0" vType="car" speedFactor="1.06" vaporized=""/>
    <tripinfo id="veh39" depart="20.00" departLane="-338648528#9_0" departPos="5.10" departSpeed="0.00" departDelay="0.50" arrival="55.00" arrivalLane="-345390442#0_0" arrivalPos="70.84" arrivalSpeed="11.51" duration="35.00" routeLength="281.94" waitingTime="1.00" waitingCount="1" stopTime="0.00" timeLoss="14.94" rerouteNo="0" devices="tripinfo_veh39" vType="car" speedFactor="0.90" vaporized=""/>
    <tripinfo id="veh21" depart="11.00" departLane="1458228607_0" departPos="5.10" departSpeed="0.00" departDelay="0.50" arrival="57.00" arrivalLane="-802399778_0" arrivalPos="62.96" arrivalSpeed="12.95" duration="46.00" routeLength="455.96" waitingTime="0.00" waitingCount="0" stopTime="0.00" timeLoss="11.39" rerouteNo="0" devices="tripinfo_veh21" vType="car" speedFactor="1.01" vaporized=""/>
    <tripinfo id="veh40" depart="20.00" departLane="-802412031_0" departPos="5.10" departSpeed="0.00" departDelay="0.00" arrival="59.00" arrivalLane="345387882_0" arrivalPos="14.34" arrivalSpeed="14.11" duration="39.00" routeLength="434.17" waitingTime="0.00" waitingCount="0" stopTime="0.00" timeLoss="7.44" rerouteNo="0" devices="tripinfo_veh40" vType="car" speedFactor="1.03" vaporized=""/>
    <tripinfo id="veh9" depart="5.00" departLane="-802399798#2_0" departPos="5.10" departSpeed="0.00" departDelay="0.50" arrival="60.00" arrivalLane="-1458334191#2_0" arrivalPos="24.05" arrivalSpeed="10.37" duration="55.00" routeLength="474.47" waitingTime="0.00" waitingCount="0" stopTime="0.00" timeLoss="11.84" rerouteNo="0" devices="tripinfo_veh9" vType="car" speedFactor="0.86" vaporized=""/>
    <tripinfo id="veh68" depart="34.00" departLane="344126029#5_0" departPos="5.10" departSpeed="0.00" departDelay="0.00" arrival="65.00" arrivalLane="765389291_1" arrivalPos="117.20" arrivalSpeed="24.71" duration="31.00" routeLength="311.72" waitingTime="0.00" waitingCount="0" stopTime="0.00" timeLoss="14.99" rerouteNo="0" devices="tripinfo_veh68" vType="car" speedFactor="1.04" vaporized=""/>
    <tripinfo id="veh30" depart="15.00" departLane="1459998823#5_0" departPos="0.20" departSpeed="0.00" departDelay="0.00" arrival="69.00" arrivalLane="-746560520#1_0" arrivalPos="0.20" arrivalSpeed="3.63" duration="54.00" routeLength="795.47" waitingTime="0.00" waitingCount="0" stopTime="0.00" timeLoss="15.12" rerouteNo="0" devices="tripinfo_veh30" vType="car" speedFactor="1.18" vaporized=""/>
    <tripinfo id="veh103" depart="52.00" departLane="338648528#5_0" departPos="4.12" departSpeed="0.00" departDelay="0.50" arrival="74.00" arrivalLane="-338648528#11_0" arrivalPos="10.31" arrivalSpeed="6.36" duration="22.00" routeLength="230.97" waitingTime="0.00" waitingCount="0" stopTime="0.00" timeLoss="12.59" rerouteNo="0" devices="tripinfo_veh103" vType="car" speedFactor="0.95" vaporized=""/>
    <tripinfo id="veh54" depart="27.00" departLane="-1209732955_0" departPos="5.10" departSpeed="0.00" departDelay="0.00" arrival="77.00" arrivalLane="-338648528#6_0" arrivalPos="18.93" arrivalSpeed="18.59" duration="50.00" routeLength="620.30" waitingTime="0.00" waitingCount="0" stopTime="0.00" timeLoss="22.36" rerouteNo="0" devices="tripinfo_veh54" vType="car" speedFactor="1.00" vaporized=""/>
    <tripinfo id="veh8" depart="4.00" departLane="802516074#1_0" departPos="5.10" departSpeed="0.00" departDelay="0.00" arrival="79.00" arrivalLane="1458339974_1" arrivalPos="32.17" arrivalSpeed="8.29" duration="75.00" routeLength="825.87" waitingTime="1.00" waitingCount="1" stopTime="0.00" timeLoss="34.00" rerouteNo="0" devices="tripinfo_veh8" vType="car" speedFactor="0.94" vaporized=""/>
    <tripinfo id="veh55" depart="28.00" departLane="802516063_0" departPos="5.10" departSpeed="0.00" departDelay="0.50" arrival="81.00" arrivalLane="-743160793#2_0" arrivalPos="92.53" arrivalSpeed="13.18" duration="53.00" routeLength="562.80" waitingTime="0.00" waitingCount="0" stopTime="0.00" timeLoss="16.64" rerouteNo="0" devices="tripinfo_veh55" vType="car" speedFactor="1.00" vaporized=""/>
    <tripinfo id="veh7" depart="4.00" departLane="265229350#3_0" departPos="5.10" departSpeed="0.00" departDelay="0.50" arrival="84.00" arrivalLane="802486170#0_0" arrivalPos="119.69" arrivalSpeed="11.08" duration="80.00" routeLength="772.81" waitingTime="0.00" waitingCount="0" stopTime="0.00" timeLoss="14.51" rerouteNo="0" devices="tripinfo_veh7" vType="car" speedFactor="0.89" vaporized=""/>
    <tripinfo id="veh43" depart="22.00" departLane="344074132#2_0" departPos="5.10" departSpeed="0.00" departDelay="0.50" arrival="86.00" arrivalLane="736486718_0" arrivalPos="160.28" arrivalSpeed="13.87" duration="64.00" routeLength="635.38" waitingTime="0.00" waitingCount="0" stopTime="0.00" timeLoss="18.96" rerouteNo="0" devices="tripinfo_veh43" vType="car" speedFactor="1.04" vaporized=""/>
    <tripinfo id="veh2" depart="1.00" departLane="-802399801_0" departPos="5.10" departSpeed="0.00" departDelay="0.00" arrival="88.00" arrivalLane="-344126024#3_0" arrivalPos="25.82" arrivalSpeed="10.92" duration="87.00" routeLength="910.55" waitingTime="0.00" waitingCount="0" stopTime="0.00" timeLoss="19.98" rerouteNo="0" devices="tripinfo_veh2" vType="car" speedFactor="1.01" vaporized=""/>
    <tripinfo id="veh27" depart="14.00" departLane="-736486718_0" departPos="5.10" departSpeed="0.00" departDelay="0.50" arrival="90.00" arrivalLane="1459998823#6_0" arrivalPos="62.64" arrivalSpeed="17.60" duration="76.00" routeLength="987.11" waitingTime="0.00" waitingCount="0" stopTime="0.00" timeLoss="29.19" rerouteNo="0" devices="tripinfo_veh27" vType="car" speedFactor="0.95" vaporized=""/>
    <tripinfo id="veh33" depart="17.00" departLane="1209729401_0" departPos="5.10" departSpeed="0.00" departDelay="0.50" arrival="90.00" arrivalLane="1377702599_0" arrivalPos="38.68" arrivalSpeed="15.44" duration="73.00" routeLength="507.22" waitingTime="0.00" waitingCount="0" stopTime="0.00" timeLoss="20.06" rerouteNo="0" devices="tripinfo_veh33" vType="car" speedFactor="1.17" vaporized=""/>
    <tripinfo id="veh11" depart="6.00" departLane="-1209729401_0" departPos="5.10" departSpeed="0.00" departDelay="0.50" arrival="92.00" arrivalLane="345387880_0" arrivalPos="146.42" arrivalSpeed="14.09" duration="86.00" routeLength="778.67" waitingTime="1.00" waitingCount="1" stopTime="0.00" timeLoss="19.54" rerouteNo="0" devices="tripinfo_veh11" vType="car" speedFactor="1.03" vaporized=""/>
    <tripinfo id="veh100" depart="50.00" departLane="344074132#2_0" departPos="5.10" departSpeed="0.00" departDelay="0.00" arrival="93.00" arrivalLane="-1204149318_0" arrivalPos="209.56" arrivalSpeed="13.91" duration="43.00" routeLength="459.52" waitingTime="0.00" waitingCount="0" stopTime="0.00" timeLoss="9.03" rerouteNo="0" devices="tripinfo_veh100" vType="car" speedFactor="1.06" vaporized=""/>
    <tripinfo id="veh149" depart="75.00" departLane="-1458236717#1_0" departPos="5.10" departSpeed="0.00" departDelay="0.50" arrival="94.00" arrivalLane="802516068#0_0" arrivalPos="20.72" arrivalSpeed="9.23" duration="19.00" routeLength="125.75" waitingTime="0.00" waitingCount="0" stopTime="0.00" timeLoss="8.41" rerouteNo="0" devices="tripinfo_veh149" vType="car" speedFactor="1.04" vaporized=""/>
    <tripinfo id="veh65" depart="33.00" departLane="1458334191#2_0" departPos="5.10" departSpeed="0.00" departDelay="0.50" arrival="95.00" arrivalLane="1459998823#0_0" arrivalPos="21.46" arrivalSpeed="22.37" duration="62.00" routeLength="194.71" waitingTime="41.00" waitingCount="1" stopTime="0.00" timeLoss="53.00" rerouteNo="0" devices="tripinfo_veh65" vType="car" speedFactor="0.88" vaporized=""/>
    <tripinfo id="veh1" depart="1.00" departLane="345390441_0" departPos="5.10" departSpeed="0.00" departDelay="0.50" arrival="96.00" arrivalLane="-802516068#0_0" arrivalPos="20.72" arrivalSpeed="11.88" duration="95.00" routeLength="948.15" waitingTime="0.00" waitingCount="0" stopTime="0.00" timeLoss="19.42" rerouteNo="0" devices="tripinfo_veh1" vType="car" speedFactor="0.94" vaporized=""/>
    <tripinfo id="veh16" depart="8.00" departLane="-265229350#5_0" departPos="0.20" departSpeed="0.00" departDelay="0.00" arrival="96.00" arrivalLane="-745514053_0" arrivalPos="88.57" arrivalSpeed="11.95" duration="88.00" routeLength="1098.29" waitingTime="0.00" waitingCount="0" stopTime="0.00" timeLoss="15.76" rerouteNo="0" devices="tripinfo_veh16" vType="car" speedFactor="0.88" vaporized=""/>
    <tripinfo id="veh37" depart="19.00" departLane="802516068#1_0" departPos="5.10" departSpeed="0.00" departDelay="0.50" arrival="97.00" arrivalLane="802399776_0" arrivalPos="106.14" arrivalSpeed="16.12" duration="78.00" routeLength="856.50" waitingTime="0.00" waitingCount="0" stopTime="0.00" timeLoss="22.59" rerouteNo="0" devices="tripinfo_veh37" vType="car" speedFactor="1.18" vaporized=""/>
    <tripinfo id="veh62" depart="31.00" departLane="743160793#4_0" departPos="5.10" departSpeed="0.00" departDelay="0.00" arrival="103.00" arrivalLane="802399778_0" arrivalPos="62.96" arrivalSpeed="14.02" duration="72.00" routeLength="690.99" waitingTime="0.00" waitingCount="0" stopTime="0.00" timeLoss="18.48" rerouteNo="0" devices="tripinfo_veh62" vType="car" speedFactor="1.02" vaporized=""/>
    <tripinfo id="veh38" depart="19.00" departLane="344215905#4_0" departPos="5.10" departSpeed="0.00" departDelay="0.00" arrival="107.00" arrivalLane="-344130935_0" arrivalPos="171.68" arrivalSpeed="14.69" duration="88.00" routeLength="947.69" waitingTime="0.00" waitingCount="0" stopTime="0.00" timeLoss="26.71" rerouteNo="0" devices="tripinfo_veh38" vType="car" speedFactor="1.10" vaporized=""/>
    <tripinfo id="veh18" depart="9.00" departLane="802412033_0" departPos="5.10" departSpeed="0.00" departDelay="0.00" arrival="108.00" arrivalLane="-338648528#4_0" arrivalPos="178.19" arrivalSpeed="25.95" duration="99.00" routeLength="1087.99" waitingTime="9.00" waitingCount="1" stopTime="0.00" timeLoss="38.36" rerouteNo="0" devices="tripinfo_veh18" vType="car" speedFactor="0.94" vaporized=""/>
    <tripinfo id="veh136" depart="69.00" departLane="1459998823#1_0" departPos="5.10" departSpeed="0.00" departDelay="1.00" arrival="110.00" arrivalLane="-1304994252_0" arrivalPos="50.20" arrivalSpeed="15.36" duration="41.00" routeLength="340.23" waitingTime="0.00" waitingCount="0" stopTime="0.00" timeLoss="21.12" rerouteNo="0" devices="tripinfo_veh136" vType="car" speedFactor="1.12" vaporized=""/>
    <tripinfo id="veh124" depart="62.00" departLane="-743160793#0_0" departPos="5.10" departSpeed="0.00" departDelay="0.00" arrival="111.00" arrivalLane="743160793#3_0" arrivalPos="235.88" arrivalSpeed="14.14" duration="49.00" routeLength="560.68" waitingTime="0.00" waitingCount="0" stopTime="0.00" timeLoss="9.94" rerouteNo="0" devices="tripinfo_veh124" vType="car" speedFactor="1.06" vaporized=""/>
    <tripinfo id="veh158" depart="79.00" departLane="-802399774#0_0" departPos="5.10" departSpeed="0.00" departDelay="0.00" arrival="111.00" arrivalLane="802399776_0" arrivalPos="106.14" arrivalSpeed="11.58" duration="32.00" routeLength="243.87" waitingTime="0.00" waitingCount="0" stopTime="0.00" timeLoss="9.81" rerouteNo="0" devices="tripinfo_veh158" vType="car" speedFactor="0.91" vaporized=""/>
    <tripinfo id="veh29" depart="15.00" departLane="-345391008#0_0" departPos="5.10" departSpeed="0.00" departDelay="0.50" arrival="112.00" arrivalLane="1209730481_0" arrivalPos="136.24" arrivalSpeed="12.73" duration="97.00" routeLength="942.65" waitingTime="0.00" waitingCount="0" stopTime="0.00" timeLoss="25.56" rerouteNo="0" devices="tripinfo_veh29" vType="car" speedFactor="0.93" vaporized=""/>
    <tripinfo id="veh182" depart="91.00" departLane="802486170#0_0" departPos="5.10" departSpeed="0.00" departDelay="0.00" arrival="115.00" arrivalLane="802486170#1_0" arrivalPos="150.79" arrivalSpeed="13.60" duration="24.00" routeLength="277.69" waitingTime="0.00" waitingCount="0" stopTime="0.00" timeLoss="4.53" rerouteNo="0" devices="tripinfo_veh182" vType="car" speedFactor="1.03" vaporized=""/>
    <tripinfo id="veh10" depart="5.00" departLane="1458156154_0" departPos="5.10" departSpeed="0.00" departDelay="0.00" arrival="117.00" arrivalLane="746834592#1_0" arrivalPos="38.31" arrivalSpeed="14.05" duration="112.00" routeLength="1120.84" waitingTime="27.00" waitingCount="1" stopTime="0.00" timeLoss="53.69" rerouteNo="0" devices="tripinfo_veh10" vType="car" speedFactor="1.09" vaporized=""/>
    <tripinfo id="veh70" depart="35.00" departLane="-122488406#4_0" departPos="5.10" departSpeed="0.00" departDelay="0.00" arrival="119.00" arrivalLane="-802399774#1_1" arrivalPos="42.57" arrivalSpeed="12.96" duration="84.00" routeLength="907.11" waitingTime="11.00" waitingCount="1" stopTime="0.00" timeLoss="34.07" rerouteNo="0" devices="tripinfo_veh70" vType="car" speedFactor="1.02" vaporized=""/>
    <tripinfo id="veh178" depart="89.00" departLane="802399801_0" departPos="5.10" departSpeed="0.00" departDelay="0.00" arrival="121.00" arrivalLane="344215905#4_0" arrivalPos="36.26" arrivalSpeed="13.39" duration="32.00" routeLength="264.01" waitingTime="0.00" waitingCount="0" stopTime="0.00" timeLoss="12.37" rerouteNo="0" devices="tripinfo_veh178" vType="car" speedFactor="1.08" vaporized=""/>
    <tripinfo id="veh44" depart="22.00" departLane="122488406#1_0" departPos="0.20" departSpeed="0.00" departDelay="0.00" arrival="122.00" arrivalLane="-802486170#1_0" arrivalPos="156.25" arrivalSpeed="6.81" duration="100.00" routeLength="1275.37" waitingTime="0.00" waitingCount="0" stopTime="0.00" timeLoss="24.65" rerouteNo="0" devices="tripinfo_veh44" vType="car" speedFactor="1.04" vaporized=""/>
    <tripinfo id="veh143" depart="72.00" departLane="-1207396415_0" departPos="5.10" departSpeed="0.00" departDelay="0.50" arrival="122.00" arrivalLane="1209729506_0" arrivalPos="42.20" arrivalSpeed="1.88" duration="50.00" routeLength="392.95" waitingTime="0.00" waitingCount="0" stopTime="0.00" timeLoss="19.01" rerouteNo="0" devices="tripinfo_veh143" vType="car" speedFactor="1.13" vaporized=""/>
    <tripinfo id="veh113" depart="57.00" departLane="-1458334191#0_0" departPos="5.10" departSpeed="0.00" departDelay="0.50" arrival="125.00" arrivalLane="-802516061_0" arrivalPos="93.60" arrivalSpeed="13.85" duration="68.00" routeLength="680.17" waitingTime="3.00" waitingCount="1" stopTime="0.00" timeLoss="20.10" rerouteNo="0" devices="tripinfo_veh113" vType="car" speedFactor="1.01" vaporized=""/>
    <tripinfo id="veh47" depart="24.00" departLane="-1050839653_0" departPos="5.10" departSpeed="0.00" departDelay="0.50" arrival="126.00" arrivalLane="802399779#1_0" arrivalPos="34.71" arrivalSpeed="11.78" duration="102.00" routeLength="1426.01" waitingTime="0.00" waitingCount="0" stopTime="0.00" timeLoss="20.57" rerouteNo="0" devices="tripinfo_veh47" vType="car" speedFactor="0.90" vaporized=""/>
    <tripinfo id="veh52" depart="26.00" departLane="-802516074#0_0" departPos="5.10" departSpeed="0.00" departDelay="0.00" arrival="126.00" arrivalLane="-345391008#0_0" arrivalPos="171.21" arrivalSpeed="13.22" duration="100.00" routeLength="616.07" waitingTime="34.00" waitingCount="2" stopTime="0.00" timeLoss="55.34" rerouteNo="0" devices="tripinfo_veh52" vType="car" speedFactor="1.02" vaporized=""/>
    <tripinfo id="veh12" depart="6.00" departLane="-802412032#0_0" departPos="5.10" departSpeed="0.00" departDelay="0.00" arrival="129.00" arrivalLane="-746834592#0_0" arrivalPos="23.09" arrivalSpeed="10.21" duration="123.00" routeLength="1102.28" waitingTime="3.00" waitingCount="1" stopTime="0.00" timeLoss="45.54" rerouteNo="0" devices="tripinfo_veh12" vType="car" speedFactor="1.05" vaporized=""/>
    <tripinfo id="veh3" depart="2.00" departLane="1209944601_0" departPos="5.10" departSpeed="0.00" departDelay="0.50" arrival="132.00" arrivalLane="-1050839644_0" arrivalPos="25.57" arrivalSpeed="12.86" duration="130.00" routeLength="1232.89" waitingTime="6.00" waitingCount="1" stopTime="0.00" timeLoss="43.88" rerouteNo="0" devices="tripinfo_veh3" vType="car" speedFactor="1.08" vaporized=""/>
    <tripinfo id="veh58" depart="29.00" departLane="-746834592#3_0" departPos="5.10" departSpeed="0.00" departDelay="0.00" arrival="136.00" arrivalLane="-344129938#2_0" arrivalPos="38.33" arrivalSpeed="14.10" duration="107.00" routeLength="1160.11" waitingTime="3.00" waitingCount="1" stopTime="0.00" timeLoss="24.96" rerouteNo="0" devices="tripinfo_veh58" vType="car" speedFactor="1.02" vaporized=""/>
    <tripinfo id="veh59" depart="30.00" departLane="802399775_0" departPos="5.10" departSpeed="0.00" departDelay="0.50" arrival="137.00" arrivalLane="-1209731431_0" arrivalPos="61.04" arrivalSpeed="1.46" duration="107.00" routeLength="526.50" waitingTime="1.00" waitingCount="1" stopTime="0.00" timeLoss="31.17" rerouteNo="0" devices="tripinfo_veh59" vType="car" speedFactor="0.97" vaporized=""/>
    <tripinfo id="veh221" depart="111.00" departLane="930291019#0_0" departPos="5.10" departSpeed="0.00" departDelay="0.50" arrival="139.00" arrivalLane="-930291019#0_0" arrivalPos="148.69" arrivalSpeed="14.67" duration="28.00" routeLength="296.69" waitingTime="0.00" waitingCount="0" stopTime="0.00" timeLoss="7.94" rerouteNo="0" devices="tripinfo_veh221" vType="car" speedFactor="1.15" vaporized=""/>
    <tripinfo id="veh4" depart="2.00" departLane="-345387880_0" departPos="5.10" departSpeed="0.00" departDelay="0.00" arrival="140.00" arrivalLane="345390442#0_0" arrivalPos="71.20" arrivalSpeed="13.49" duration="138.00" routeLength="1465.50" waitingTime="14.00" waitingCount="2" stopTime="0.00" timeLoss="56.57" rerouteNo="0" devices="tripinfo_veh4" vType="car" speedFactor="1.03" vaporized=""/>
    <tripinfo id="veh17" depart="9.00" departLane="345387876_0" departPos="5.10" departSpeed="0.00" departDelay="0.50" arrival="141.00" arrivalLane="345390443#2_0" arrivalPos="61.39" arrivalSpeed="12.72" duration="132.00" routeLength="1447.80" waitingTime="13.00" waitingCount="1" stopTime="0.00" timeLoss="43.27" rerouteNo="0" devices="tripinfo_veh17" vType="car" speedFactor="0.94" vaporized=""/>
    <tripinfo id="veh31" depart="16.00" departLane="-345390443#1_0" departPos="0.20" departSpeed="0.00" departDelay="0.50" arrival="142.00" arrivalLane="-743160793#4_0" arrivalPos="42.56" arrivalSpeed="13.39" duration="126.00" routeLength="1296.14" waitingTime="19.00" waitingCount="1" stopTime="0.00" timeLoss="56.41" rerouteNo="0" devices="tripinfo_veh31" vType="car" speedFactor="1.15" vaporized=""/>
    <tripinfo id="veh80" depart="40.00" departLane="-802399783_0" departPos="5.10" departSpeed="0.00" departDelay="0.00" arrival="143.00" arrivalLane="345391009#2_0" arrivalPos="162.35" arrivalSpeed="13.23" duration="103.00" routeLength="1080.79" waitingTime="3.00" waitingCount="2" stopTime="0.00" timeLoss="31.37" rerouteNo="0" devices="tripinfo_veh80" vType="car" speedFactor="1.03" vaporized=""/>
    <tripinfo id="veh15" depart="8.00" departLane="802516073_0" departPos="5.10" departSpeed="0.00" departDelay="0.50" arrival="147.00" arrivalLane="-802399779#1_0" arrivalPos="39.96" arrivalSpeed="12.70" duration="139.00" routeLength="1386.76" waitingTime="29.00" waitingCount="1" stopTime="0.00" timeLoss="62.63" rerouteNo="0" devices="tripinfo_veh15" vType="car" speedFactor="0.93" vaporized=""/>
    <tripinfo id="veh161" depart="82.00" departLane="-344215905#0_0" departPos="5.10" departSpeed="0.00" departDelay="1.50" arrival="149.00" arrivalLane="-802399778_0" arrivalPos="62.96" arrivalSpeed="14.00" duration="67.00" routeLength="553.06" waitingTime="0.00" waitingCount="0" stopTime="0.00" timeLoss="34.87" rerouteNo="0" devices="tripinfo_veh161" vType="car" speedFactor="1.08" vaporized=""/>
    <tripinfo id="veh188" depart="94.00" departLane="-345390446_0" departPos="5.10" departSpeed="0.00" departDelay="0.00" arrival="149.00" arrivalLane="-1209730481_1" arrivalPos="139.96" arrivalSpeed="12.48" duration="55.00" routeLength="542.29" waitingTime="1.00" waitingCount="1" stopTime="0.00" timeLoss="17.92" rerouteNo="0" devices="tripinfo_veh188" vType="car" speedFactor="0.97" vaporized=""/>
    <tripinfo id="veh25" depart="13.00" departLane="344130935_0" departPos="5.10" departSpeed="0.00" departDelay="0.50" arrival="150.00" arrivalLane="802399799_0" arrivalPos="74.03" arrivalSpeed="11.37" duration="137.00" routeLength="1146.49" waitingTime="4.00" waitingCount="2" stopTime="0.00" timeLoss="40.69" rerouteNo="0" devices="tripinfo_veh25" vType="car" speedFactor="0.87" vaporized=""/>
    <tripinfo id="veh267" depart="134.00" departLane="1050839641_0" departPos="5.10" departSpeed="0.00" departDelay="0.50" arrival="155.00" arrivalLane="-1458438168_0" arrivalPos="42.15" arrivalSpeed="12.15" duration="21.00" routeLength="158.86" waitingTime="0.00" waitingCount="0" stopTime="0.00" timeLoss="6.88" rerouteNo="0" devices="tripinfo_veh267" vType="car" speedFactor="0.92" vaporized=""/>
    <tripinfo id="veh250" depart="127.00" departLane="345390446_0" departPos="5.10" departSpeed="0.00" departDelay="2.00" arrival="156.00" arrivalLane="345391008#1_0" arrivalPos="85.20" arrivalSpeed="12.34" duration="29.00" routeLength="248.66" waitingTime="0.00" waitingCount="0" stopTime="0.00" timeLoss="8.09" rerouteNo="0" devices="tripinfo_veh250" vType="car" speedFactor="0.93" vaporized=""/>
    <tripinfo id="veh190" depart="96.00" departLane="-344126029#3_0" departPos="5.10" departSpeed="0.00" departDelay="1.00" arrival="157.00" arrivalLane="-1209952765_0" arrivalPos="28.50" arrivalSpeed="11.50" duration="61.00" routeLength="590.70" waitingTime="0.00" waitingCount="0" stopTime="0.00" timeLoss="10.77" rerouteNo="0" devices="tripinfo_veh190" vType="car" speedFactor="0.90" vaporized=""/>
    <tripinfo id="veh49" depart="25.00" departLane="265229350#5_0" departPos="0.20" departSpeed="0.00" departDelay="0.50" arrival="158.00" arrivalLane="-344129938#3_0" arrivalPos="64.41" arrivalSpeed="10.52" duration="133.00" routeLength="1106.21" waitingTime="11.00" waitingCount="3" stopTime="0.00" timeLoss="43.65" rerouteNo="0" devices="tripinfo_veh49" vType="car" speedFactor="0.85" vaporized=""/>
    <tripinfo id="veh219" depart="110.00" departLane="345390446_0" departPos="5.10" departSpeed="0.00" departDelay="0.50" arrival="159.00" arrivalLane="345390442#0_0" arrivalPos="71.20" arrivalSpeed="12.54" duration="49.00" routeLength="386.67" waitingTime="0.00" waitingCount="0" stopTime="0.00" timeLoss="14.12" rerouteNo="0" devices="tripinfo_veh219" vType="car" speedFactor="0.91" vaporized=""/>
    <tripinfo id="veh90" depart="45.00" departLane="-345387880_0" departPos="5.10" departSpeed="0.00" departDelay="0.00" arrival="162.00" arrivalLane="1458334191#0_0" arrivalPos="34.30" arrivalSpeed="14.00" duration="117.00" routeLength="866.43" waitingTime="28.00" waitingCount="2" stopTime="0.00" timeLoss="61.53" rerouteNo="0" devices="tripinfo_veh90" vType="car" speedFactor="1.02" vaporized=""/>
    <tripinfo id="veh20" depart="10.00" departLane="1207396415_0" departPos="5.10" departSpeed="0.00" departDelay="0.00" arrival="169.00" arrivalLane="1458156149#0_0" arrivalPos="57.02" arrivalSpeed="2.08" duration="159.00" routeLength="1190.13" waitingTime="0.00" waitingCount="0" stopTime="0.00" timeLoss="33.07" rerouteNo="0" devices="tripinfo_veh20" vType="car" speedFactor="1.02" vaporized=""/>
    <tripinfo id="veh34" depart="17.00" departLane="344215905#3_0" departPos="5.10" departSpeed="0.00" departDelay="0.00" arrival="170.00" arrivalLane="345387876_0" arrivalPos="168.06" arrivalSpeed="12.89" duration="153.00" routeLength="1566.07" waitingTime="8.00" waitingCount="2" stopTime="0.00" timeLoss="38.85" rerouteNo="0" devices="tripinfo_veh34" vType="car" speedFactor="0.99" vaporized=""/>
    <tripinfo id="veh148" depart="74.00" departLane="802516059#0_0" departPos="5.10" departSpeed="0.00" departDelay="0.00" arrival="170.00" arrivalLane="-1459998823#0_0" arrivalPos="21.46" arrivalSpeed="13.87" duration="96.00" routeLength="420.31" waitingTime="50.00" waitingCount="2" stopTime="0.00" timeLoss="73.56" rerouteNo="0" devices="tripinfo_veh148" vType="car" speedFactor="0.97" vaporized=""/>
    <tripinfo id="veh187" depart="94.00" departLane="344126024#0_0" departPos="5.10" departSpeed="0.00" departDelay="0.50" arrival="172.00" arrivalLane="344130935_0" arrivalPos="174.98" arrivalSpeed="12.24" duration="78.00" routeLength="804.66" waitingTime="0.00" waitingCount="0" stopTime="0.00" timeLoss="10.68" rerouteNo="0" devices="tripinfo_veh187" vType="car" speedFactor="0.89" vaporized=""/>
    <tripinfo id="veh114" depart="57.00" departLane="344126029#6_0" departPos="5.10" departSpeed="0.00" departDelay="0.00" arrival="173.00" arrivalLane="-1458156153#2_0" arrivalPos="48.32" arrivalSpeed="5.44" duration="116.00" routeLength="473.28" waitingTime="63.00" waitingCount="3" stopTime="0.00" timeLoss="89.87" rerouteNo="0" devices="tripinfo_veh114" vType="car" speedFactor="1.10" vaporized=""/>
    <tripinfo id="veh76" depart="38.00" departLane="345391008#1_0" departPos="5.10" departSpeed="0.00" departDelay="0.00" arrival="175.00" arrivalLane="745197852#1_0" arrivalPos="56.77" arrivalSpeed="13.50" duration="137.00" routeLength="1139.14" waitingTime="30.00" waitingCount="1" stopTime="0.00" timeLoss="71.21" rerouteNo="0" devices="tripinfo_veh76" vType="car" speedFactor="1.03" vaporized=""/>
    <tripinfo id="veh179" depart="99.00" departLane="338648528#10_0" departPos="5.10" departSpeed="0.00" departDelay="9.50" arrival="175.00" arrivalLane="-749406407#1_0" arrivalPos="19.23" arrivalSpeed="14.23" duration="76.00" routeLength="961.89" waitingTime="0.00" waitingCount="0" stopTime="0.00" timeLoss="25.80" rerouteNo="0" devices="tripinfo_veh179" vType="car" speedFactor="1.06" vaporized=""/>
    <tripinfo id="veh257" depart="129.00" departLane="802486170#1_0" departPos="5.10" departSpeed="0.00" departDelay="0.50" arrival="175.00" arrivalLane="-265229350#5_0" arrivalPos="0.20" arrivalSpeed="5.96" duration="46.00" routeLength="384.97" waitingTime="3.00" waitingCount="1" stopTime="0.00" timeLoss="22.93" rerouteNo="0" devices="tripinfo_veh257" vType="car" speedFactor="1.30" vaporized=""/>
    <tripinfo id="veh86" depart="43.00" departLane="345391009#1_0" departPos="5.10" departSpeed="0.00" departDelay="0.00" arrival="176.00" arrivalLane="-847580334#0_0" arrivalPos="276.03" arrivalSpeed="13.74" duration="133.00" routeLength="1438.29" waitingTime="3.00" waitingCount="1" stopTime="0.00" timeLoss="32.81" rerouteNo="0" devices="tripinfo_veh86" vType="car" speedFactor="1.00" vaporized=""/>
    <tripinfo id="veh88" depart="44.00" departLane="-345390442#2_0" departPos="5.10" departSpeed="0.00" departDelay="0.00" arrival="177.00" arrivalLane="344126024#3_0" arrivalPos="25.86" arrivalSpeed="13.31" duration="133.00" routeLength="1420.61" waitingTime="8.00" waitingCount="1" stopTime="0.00" timeLoss="54.41" rerouteNo="0" devices="tripinfo_veh88" vType="car" speedFactor="1.01" vaporized=""/>
    <tripinfo id="veh109" depart="55.00" departLane="338648528#9_0" departPos="5.10" departSpeed="0.00" departDelay="0.50" arrival="183.00" arrivalLane="-1050839641_0" arrivalPos="67.02" arrivalSpeed="12.60" duration="128.00" routeLength="1007.48" waitingTime="37.00" waitingCount="1" stopTime="0.00" timeLoss="64.02" rerouteNo="0" devices="tripinfo_veh109" vType="car" speedFactor="0.96" vaporized=""/>
    <tripinfo id="veh181" depart="91.00" departLane="1209728804_0" departPos="5.10" departSpeed="0.00" departDelay="0.50" arrival="184.00" arrivalLane="-749334674_0" arrivalPos="47.65" arrivalSpeed="1.88" duration="93.00" routeLength="400.02" waitingTime="0.00" waitingCount="0" stopTime="0.00" timeLoss="19.48" rerouteNo="0" devices="tripinfo_veh181" vType="car" speedFactor="1.03" vaporized=""/>
    <tripinfo id="veh24" depart="12.00" departLane="802399776_0" departPos="5.10" departSpeed="0.00" departDelay="0.00" arrival="186.00" arrivalLane="-344130935_0" arrivalPos="171.68" arrivalSpeed="10.47" duration="174.00" routeLength="1043.81" waitingTime="51.00" waitingCount="3" stopTime="0.00" timeLoss="78.49" rerouteNo="0" devices="tripinfo_veh24" vType="car" speedFactor="0.83" vaporized=""/>