<?xml version="1.0" encoding="UTF-8"?>

<!-- generated on 2026-03-18 00:29:19 by Eclipse SUMO sumo Version 1.24.0
<sumoConfiguration xmlns:xsi="http://www.w3.org/2001/XMLSchema-instance" xsi:noNamespaceSchemaLocation="http://sumo.dlr.de/xsd/sumoConfiguration.xsd">

    <input>
        <net-file value="map.net.xml"/>
        <route-files value="simulation.rou.xml"/>
    </input>

    <output>
        <tripinfo-output value="tripinfo_old.xml"/>
    </output>

    <report>
        <duration-log.statistics value="true"/>
    </report>

</sumoConfiguration>
-->

<tripinfos xmlns:xsi="http://www.w3.org/2001/XMLSchema-instance" xsi:noNamespaceSchemaLocation="http://sumo.dlr.de/xsd/tripinfo_file.xsd">
    <tripinfo id="veh0" depart="0.00" departLane="338648528#6_0" departPos="5.10" departSpeed="0.00" departDelay="0.00" arrival="54.00" arrivalLane="345390447#0_0" arrivalPos="180.90" arrivalSpeed="13.64" duration="54.00" routeLength="579.78" waitingTime="0.00" waitingCount="0" stopTime="0.00" timeLoss="14.05" rerouteNo="0" devices="tripinfo_veh0" vType="car" speedFactor="1.06" vaporized=""/>
    <tripinfo id="veh39" depart="20.00" departLane="-338648528#9_0" departPos="5.10" departSpeed="0.00" departDelay="0.50" arrival="54.00" arrivalLane="-345390442#0_0" arrivalPos="70.84" arrivalSpeed="11.43" duration="34.00" routeLength="281.95" waitingTime="0.00" waitingCount="0" stopTime="0.00" timeLoss="14.16" rerouteNo="0" devices="tripinfo_veh39" vType="car" speedFactor="0.90" vaporized=""/>
    <tripinfo id="veh21" depart="11.00" departLane="1458228607_0" departPos="5.10" departSpeed="0.00" departDelay="0.50" arrival="56.00" arrivalLane="-802399778_0" arrivalPos="66.19" arrivalSpeed="12.94" duration="45.00" routeLength="456.01" waitingTime="0.00" waitingCount="0" stopTime="0.00" timeLoss="9.93" rerouteNo="0" devices="tripinfo_veh21" vType="car" speedFactor="1.01" vaporized=""/>
    <tripinfo id="veh41" depart="21.00" departLane="1458224698_0" departPos="5.10" departSpeed="0.00" departDelay="0.50" arrival="56.00" arrivalLane="906594466_0" arrivalPos="14.91" arrivalSpeed="11.98" duration="35.00" routeLength="439.03" waitingTime="4.00" waitingCount="1" stopTime="0.00" timeLoss="15.70" rerouteNo="0" devices="tripinfo_veh41" vType="car" speedFactor="0.96" vaporized=""/>
    <tripinfo id="veh40" depart="20.00" departLane="-802412031_0" departPos="5.10" departSpeed="0.00" departDelay="0.00" arrival="60.00" arrivalLane="345387882_0" arrivalPos="14.34" arrivalSpeed="14.04" duration="40.00" routeLength="434.16" waitingTime="0.00" waitingCount="0" stopTime="0.00" timeLoss="7.38" rerouteNo="0" devices="tripinfo_veh40" vType="car" speedFactor="1.03" vaporized=""/>
    <tripinfo id="veh68" depart="34.00" departLane="344126029#5_0" departPos="5.10" departSpeed="0.00" departDelay="0.00" arrival="65.00" arrivalLane="765389291_1" arrivalPos="117.20" arrivalSpeed="25.14" duration="31.00" routeLength="311.72" waitingTime="0.00" waitingCount="0" stopTime="0.00" timeLoss="14.02" rerouteNo="0" devices="tripinfo_veh68" vType="car" speedFactor="1.04" vaporized=""/>
    <tripinfo id="veh9" depart="5.00" departLane="-802399798#2_0" departPos="5.10" departSpeed="0.00" departDelay="0.50" arrival="66.00" arrivalLane="-1458334191#2_0" arrivalPos="24.06" arrivalSpeed="9.14" duration="61.00" routeLength="475.83" waitingTime="3.00" waitingCount="1" stopTime="0.00" timeLoss="17.81" rerouteNo="0" devices="tripinfo_veh9" vType="car" speedFactor="0.86" vaporized=""/>
    <tripinfo id="veh14" depart="7.00" departLane="-338648528#12_0" departPos="5.10" departSpeed="0.00" departDelay="0.00" arrival="66.00" arrivalLane="1459998823#4_0" arrivalPos="1.50" arrivalSpeed="4.59" duration="59.00" routeLength="591.01" waitingTime="17.00" waitingCount="1" stopTime="0.00" timeLoss="36.10" rerouteNo="0" devices="tripinfo_veh14" vType="car" speedFactor="0.99" vaporized=""/>
    <tripinfo id="veh30" depart="15.00" departLane="1459998823#5_0" departPos="0.20" departSpeed="0.00" departDelay="0.00" arrival="71.00" arrivalLane="-746560520#1_0" arrivalPos="0.20" arrivalSpeed="4.17" duration="56.00" routeLength="795.41" waitingTime="0.00" waitingCount="0" stopTime="0.00" timeLoss="16.79" rerouteNo="0" devices="tripinfo_veh30" vType="car" speedFactor="1.18" vaporized=""/>
    <tripinfo id="veh103" depart="52.00" departLane="338648528#5_0" departPos="4.12" departSpeed="0.00" departDelay="0.50" arrival="74.00" arrivalLane="-338648528#11_0" arrivalPos="10.30" arrivalSpeed="7.21" duration="22.00" routeLength="230.94" waitingTime="0.00" waitingCount="0" stopTime="0.00" timeLoss="11.42" rerouteNo="0" devices="tripinfo_veh103" vType="car" speedFactor="0.95" vaporized=""/>
    <tripinfo id="veh8" depart="4.00" departLane="802516074#1_0" departPos="5.10" departSpeed="0.00" departDelay="0.00" arrival="79.00" arrivalLane="1458339974_1" arrivalPos="32.17" arrivalSpeed="7.84" duration="75.00" routeLength="825.87" waitingTime="0.00" waitingCount="0" stopTime="0.00" timeLoss="33.87" rerouteNo="0" devices="tripinfo_veh8" vType="car" speedFactor="0.94" vaporized=""/>
    <tripinfo id="veh7" depart="4.00" departLane="265229350#3_0" departPos="5.10" departSpeed="0.00" departDelay="0.50" arrival="85.00" arrivalLane="802486170#0_0" arrivalPos="119.68" arrivalSpeed="11.20" duration="81.00" routeLength="772.81" waitingTime="0.00" waitingCount="0" stopTime="0.00" timeLoss="14.84" rerouteNo="0" devices="tripinfo_veh7" vType="car" speedFactor="0.89" vaporized=""/>
    <tripinfo id="veh2" depart="1.00" departLane="-802399801_0" departPos="5.10" departSpeed="0.00" departDelay="0.00" arrival="87.00" arrivalLane="-344126024#3_0" arrivalPos="25.82" arrivalSpeed="11.62" duration="86.00" routeLength="911.90" waitingTime="0.00" waitingCount="0" stopTime="0.00" timeLoss="19.65" rerouteNo="0" devices="tripinfo_veh2" vType="car" speedFactor="1.01" vaporized=""/>
    <tripinfo id="veh27" depart="14.00" departLane="-736486718_0" departPos="5.10" departSpeed="0.00" departDelay="0.50" arrival="90.00" arrivalLane="1459998823#6_0" arrivalPos="62.64" arrivalSpeed="15.44" duration="76.00" routeLength="987.12" waitingTime="0.00" waitingCount="0" stopTime="0.00" timeLoss="30.79" rerouteNo="0" devices="tripinfo_veh27" vType="car" speedFactor="0.95" vaporized=""/>
    <tripinfo id="veh11" depart="6.00" departLane="-1209729401_0" departPos="5.10" departSpeed="0.00" departDelay="0.50" arrival="92.00" arrivalLane="345387880_0" arrivalPos="146.41" arrivalSpeed="14.03" duration="86.00" routeLength="778.66" waitingTime="2.00" waitingCount="1" stopTime="0.00" timeLoss="20.14" rerouteNo="0" devices="tripinfo_veh11" vType="car" speedFactor="1.03" vaporized=""/>
    <tripinfo id="veh100" depart="50.00" departLane="344074132#2_0" departPos="5.10" departSpeed="0.00" departDelay="0.00" arrival="93.00" arrivalLane="-1204149318_0" arrivalPos="209.56" arrivalSpeed="13.83" duration="43.00" routeLength="458.41" waitingTime="0.00" waitingCount="0" stopTime="0.00" timeLoss="9.71" rerouteNo="0" devices="tripinfo_veh100" vType="car" speedFactor="1.06" vaporized=""/>
    <tripinfo id="veh1" depart="1.00" departLane="345390441_0" departPos="5.10" departSpeed="0.00" departDelay="0.50" arrival="94.00" arrivalLane="-802516068#0_0" arrivalPos="20.72" arrivalSpeed="11.67" duration="93.00" routeLength="948.18" waitingTime="0.00" waitingCount="0" stopTime="0.00" timeLoss="16.98" rerouteNo="0" devices="tripinfo_veh1" vType="car" speedFactor="0.94" vaporized=""/>
    <tripinfo id="veh149" depart="75.00" departLane="-1458236717#1_0" departPos="5.10" departSpeed="0.00" departDelay="0.50" arrival="94.00" arrivalLane="802516068#0_0" arrivalPos="20.72" arrivalSpeed="9.35" duration="19.00" routeLength="125.75" waitingTime="0.00" waitingCount="0" stopTime="0.00" timeLoss="8.36" rerouteNo="0" devices="tripinfo_veh149" vType="car" speedFactor="1.04" vaporized=""/>
    <tripinfo id="veh37" depart="19.00" departLane="802516068#1_0" departPos="5.10" departSpeed="0.00" departDelay="0.50" arrival="99.00" arrivalLane="802399776_0" arrivalPos="109.35" arrivalSpeed="16.05" duration="80.00" routeLength="862.93" waitingTime="0.00" waitingCount="0" stopTime="0.00" timeLoss="22.99" rerouteNo="0" devices="tripinfo_veh37" vType="car" speedFactor="1.18" vaporized=""/>
    <tripinfo id="veh38" depart="19.00" departLane="344215905#4_0" departPos="5.10" departSpeed="0.00" departDelay="0.00" arrival="100.00" arrivalLane="-344130935_0" arrivalPos="171.68" arrivalSpeed="14.11" duration="81.00" routeLength="948.80" waitingTime="0.00" waitingCount="0" stopTime="0.00" timeLoss="18.74" rerouteNo="0" devices="tripinfo_veh38" vType="car" speedFactor="1.10" vaporized=""/>
    <tripinfo id="veh55" depart="28.00" departLane="802516063_0" departPos="5.10" departSpeed="0.00" departDelay="0.50" arrival="101.00" arrivalLane="-743160793#2_0" arrivalPos="92.53" arrivalSpeed="13.60" duration="73.00" routeLength="562.80" waitingTime="14.00" waitingCount="1" stopTime="0.00" timeLoss="36.20" rerouteNo="0" devices="tripinfo_veh55" vType="car" speedFactor="1.00" vaporized=""/>
    <tripinfo id="veh62" depart="31.00" departLane="743160793#4_0" departPos="5.10" departSpeed="0.00" departDelay="0.00" arrival="103.00" arrivalLane="802399778_0" arrivalPos="66.19" arrivalSpeed="13.61" duration="72.00" routeLength="695.05" waitingTime="0.00" waitingCount="0" stopTime="0.00" timeLoss="19.07" rerouteNo="0" devices="tripinfo_veh62" vType="car" speedFactor="1.02" vaporized=""/>
    <tripinfo id="veh158" depart="79.00" departLane="-802399774#0_0" departPos="5.10" departSpeed="0.00" departDelay="0.00" arrival="108.00" arrivalLane="802399776_0" arrivalPos="109.35" arrivalSpeed="12.12" duration="29.00" routeLength="242.44" waitingTime="0.00" waitingCount="0" stopTime="0.00" timeLoss="8.00" rerouteNo="0" devices="tripinfo_veh158" vType="car" speedFactor="0.91" vaporized=""/>
    <tripinfo id="veh16" depart="8.00" departLane="-265229350#5_0" departPos="0.20" departSpeed="0.00" departDelay="0.00" arrival="110.00" arrivalLane="-745514053_0" arrivalPos="88.57" arrivalSpeed="11.94" duration="102.00" routeLength="1098.30" waitingTime="2.00" waitingCount="1" stopTime="0.00" timeLoss="28.90" rerouteNo="0" devices="tripinfo_veh16" vType="car" speedFactor="0.88" vaporized=""/>
    <tripinfo id="veh136" depart="70.00" departLane="1459998823#1_0" departPos="5.10" departSpeed="0.00" departDelay="2.00" arrival="110.00" arrivalLane="-1304994252_0" arrivalPos="50.20" arrivalSpeed="14.96" duration="40.00" routeLength="340.22" waitingTime="1.00" waitingCount="1" stopTime="0.00" timeLoss="20.10" rerouteNo="0" devices="tripinfo_veh136" vType="car" speedFactor="1.12" vaporized=""/>
    <tripinfo id="veh124" depart="62.00" departLane="-743160793#0_0" departPos="5.10" departSpeed="0.00" departDelay="0.00" arrival="112.00" arrivalLane="743160793#3_0" arrivalPos="235.88" arrivalSpeed="14.17" duration="50.00" routeLength="560.68" waitingTime="0.00" waitingCount="0" stopTime="0.00" timeLoss="10.85" rerouteNo="0" devices="tripinfo_veh124" vType="car" speedFactor="1.06" vaporized=""/>
    <tripinfo id="veh182" depart="91.00" departLane="802486170#0_0" departPos="5.10" departSpeed="0.00" departDelay="0.00" arrival="115.00" arrivalLane="802486170#1_0" arrivalPos="150.79" arrivalSpeed="13.19" duration="24.00" routeLength="277.68" waitingTime="0.00" waitingCount="0" stopTime="0.00" timeLoss="3.70" rerouteNo="0" devices="tripinfo_veh182" vType="car" speedFactor="1.03" vaporized=""/>
    <tripinfo id="veh54" depart="27.00" departLane="-1209732955_0" departPos="5.10" departSpeed="0.00" departDelay="0.00" arrival="116.00" arrivalLane="-338648528#6_0" arrivalPos="18.93" arrivalSpeed="18.83" duration="89.00" routeLength="620.30" waitingTime="41.00" waitingCount="1" stopTime="0.00" timeLoss="61.19" rerouteNo="0" devices="tripinfo_veh54" vType="car" speedFactor="1.00" vaporized=""/>
    <tripinfo id="veh15" depart="8.00" departLane="802516073_0" departPos="5.10" departSpeed="0.00" departDelay="0.50" arrival="120.00" arrivalLane="-802399779#1_0" arrivalPos="39.95" arrivalSpeed="12.82" duration="112.00" routeLength="1386.77" waitingTime="0.00" waitingCount="0" stopTime="0.00" timeLoss="36.22" rerouteNo="0" devices="tripinfo_veh15" vType="car" speedFactor="0.93" vaporized=""/>
    <tripinfo id="veh178" depart="89.00" departLane="802399801_0" departPos="5.10" departSpeed="0.00" departDelay="0.00" arrival="122.00" arrivalLane="344215905#4_0" arrivalPos="36.48" arrivalSpeed="12.72" duration="33.00" routeLength="267.43" waitingTime="0.00" waitingCount="0" stopTime="0.00" timeLoss="12.13" rerouteNo="0" devices="tripinfo_veh178" vType="car" speedFactor="1.08" vaporized=""/>
    <tripinfo id="veh33" depart="17.00" departLane="1209729401_0" departPos="5.10" departSpeed="0.00" departDelay="0.50" arrival="125.00" arrivalLane="1377702599_0" arrivalPos="38.68" arrivalSpeed="14.01" duration="108.00" routeLength="507.23" waitingTime="27.00" waitingCount="1" stopTime="0.00" timeLoss="55.09" rerouteNo="0" devices="tripinfo_veh33" vType="car" speedFactor="1.17" vaporized=""/>
    <tripinfo id="veh113" depart="57.00" departLane="-1458334191#0_0" departPos="5.10" departSpeed="0.00" departDelay="0.50" arrival="126.00" arrivalLane="-802516061_0" arrivalPos="97.47" arrivalSpeed="13.12" duration="69.00" routeLength="746.64" waitingTime="0.00" waitingCount="0" stopTime="0.00" timeLoss="15.99" rerouteNo="0" devices="tripinfo_veh113" vType="car" speedFactor="1.01" vaporized=""/>
    <tripinfo id="veh47" depart="24.00" departLane="-1050839653_0" departPos="5.10" departSpeed="0.00" departDelay="0.50" arrival="128.00" arrivalLane="802399779#1_0" arrivalPos="34.71" arrivalSpeed="11.31" duration="104.00" routeLength="1426.00" waitingTime="0.00" waitingCount="0" stopTime="0.00" timeLoss="23.24" rerouteNo="0" devices="tripinfo_veh47" vType="car" speedFactor="0.90" vaporized=""/>
    <tripinfo id="veh70" depart="35.00" departLane="-122488406#4_0" departPos="5.10" departSpeed="0.00" departDelay="0.00" arrival="128.00" arrivalLane="-802399774#1_0" arrivalPos="44.99" arrivalSpeed="13.96" duration="93.00" routeLength="908.77" waitingTime="20.00" waitingCount="2" stopTime="0.00" timeLoss="43.04" rerouteNo="0" devices="tripinfo_veh70" vType="car" speedFactor="1.02" vaporized=""/>
    <tripinfo id="veh44" depart="22.00" departLane="122488406#1_0" departPos="0.20" departSpeed="0.00" departDelay="0.00" arrival="130.00" arrivalLane="-802486170#1_0" arrivalPos="156.24" arrivalSpeed="13.36" duration="108.00" routeLength="1275.35" waitingTime="4.00" waitingCount="1" stopTime="0.00" timeLoss="33.13" rerouteNo="0" devices="tripinfo_veh44" vType="car" speedFactor="1.04" vaporized=""/>
    <tripinfo id="veh18" depart="9.00" departLane="802412033_0" departPos="5.10" departSpeed="0.00" departDelay="0.00" arrival="132.00" arrivalLane="-338648528#4_0" arrivalPos="178.19" arrivalSpeed="24.71" duration="123.00" routeLength="1088.00" waitingTime="25.00" waitingCount="1" stopTime="0.00" timeLoss="62.78" rerouteNo="0" devices="tripinfo_veh18" vType="car" speedFactor="0.94" vaporized=""/>
    <tripinfo id="veh58" depart="29.00" departLane="-746834592#3_0" departPos="5.10" departSpeed="0.00" departDelay="0.00" arrival="136.00" arrivalLane="-344129938#2_0" arrivalPos="38.33" arrivalSpeed="14.21" duration="107.00" routeLength="1161.48" waitingTime="3.00" waitingCount="1" stopTime="0.00" timeLoss="24.62" rerouteNo="0" devices="tripinfo_veh58" vType="car" speedFactor="1.02" vaporized=""/>
    <tripinfo id="veh143" depart="72.00" departLane="-1207396415_0" departPos="5.10" departSpeed="0.00" departDelay="0.50" arrival="136.00" arrivalLane="1209729506_0" arrivalPos="42.20" arrivalSpeed="2.27" duration="64.00" routeLength="392.97" waitingTime="7.00" waitingCount="1" stopTime="0.00" timeLoss="33.27" rerouteNo="0" devices="tripinfo_veh143" vType="car" speedFactor="1.13" vaporized=""/>
    <tripinfo id="veh24" depart="12.00" departLane="802399776_0" departPos="5.10" departSpeed="0.00" departDelay="0.00" arrival="138.00" arrivalLane="-344130935_0" arrivalPos="171.68" arrivalSpeed="10.59" duration="126.00" routeLength="1047.03" waitingTime="4.00" waitingCount="1" stopTime="0.00" timeLoss="30.40" rerouteNo="0" devices="tripinfo_veh24" vType="car" speedFactor="0.83" vaporized=""/>
    <tripinfo id="veh221" depart="111.00" departLane="930291019#0_0" departPos="5.10" departSpeed="0.00" departDelay="0.50" arrival="139.00" arrivalLane="-930291019#0_0" arrivalPos="148.69" arrivalSpeed="15.83" duration="28.00" routeLength="296.69" waitingTime="0.00" waitingCount="0" stopTime="0.00" timeLoss="7.04" rerouteNo="0" devices="tripinfo_veh221" vType="car" speedFactor="1.15" vaporized=""/>
    <tripinfo id="veh59" depart="30.00" departLane="802399775_0" departPos="5.10" departSpeed="0.00" departDelay="0.50" arrival="140.00" arrivalLane="-1209731431_0" arrivalPos="61.03" arrivalSpeed="2.59" duration="110.00" routeLength="526.49" waitingTime="3.00" waitingCount="1" stopTime="0.00" timeLoss="34.59" rerouteNo="0" devices="tripinfo_veh59" vType="car" speedFactor="0.97" vaporized=""/>
    <tripinfo id="veh65" depart="34.00" departLane="1458334191#2_0" departPos="5.10" departSpeed="0.00" departDelay="1.50" arrival="140.00" arrivalLane="1459998823#0_0" arrivalPos="21.46" arrivalSpeed="12.91" duration="106.00" routeLength="194.72" waitingTime="83.00" waitingCount="1" stopTime="0.00" timeLoss="96.89" rerouteNo="0" devices="tripinfo_veh65" vType="car" speedFactor="0.88" vaporized=""/>
    <tripinfo id="veh17" depart="9.00" departLane="345387876_0" departPos="5.10" departSpeed="0.00" departDelay="0.50" arrival="141.00" arrivalLane="345390443#2_0" arrivalPos="61.40" arrivalSpeed="12.84" duration="132.00" routeLength="1447.80" waitingTime="9.00" waitingCount="2" stopTime="0.00" timeLoss="43.93" rerouteNo="0" devices="tripinfo_veh17" vType="car" speedFactor="0.94" vaporized=""/>
    <tripinfo id="veh161" depart="84.00" departLane="-344215905#0_0" departPos="5.10" departSpeed="0.00" departDelay="3.50" arrival="142.00" arrivalLane="-802399778_0" arrivalPos="66.19" arrivalSpeed="13.87" duration="58.00" routeLength="552.45" waitingTime="1.00" waitingCount="1" stopTime="0.00" timeLoss="26.02" rerouteNo="0" devices="tripinfo_veh161" vType="car" speedFactor="1.08" vaporized=""/>
    <tripinfo id="veh4" depart="2.00" departLane="-345387880_0" departPos="5.10" departSpeed="0.00" departDelay="0.00" arrival="144.00" arrivalLane="345390442#0_0" arrivalPos="71.20" arrivalSpeed="14.17" duration="142.00" routeLength="1465.49" waitingTime="14.00" waitingCount="3" stopTime="0.00" timeLoss="60.15" rerouteNo="0" devices="tripinfo_veh4" vType="car" speedFactor="1.03" vaporized=""/>
    <tripinfo id="veh43" depart="22.00" departLane="344074132#2_0" departPos="5.10" departSpeed="0.00" departDelay="0.50" arrival="147.00" arrivalLane="736486718_0" arrivalPos="160.28" arrivalSpeed="13.88" duration="125.00" routeLength="634.27" waitingTime="53.00" waitingCount="2" stopTime="0.00" timeLoss="79.42" rerouteNo="0" devices="tripinfo_veh43" vType="car" speedFactor="1.04" vaporized=""/>
    <tripinfo id="veh267" depart="134.00" departLane="1050839641_0" departPos="5.10" departSpeed="0.00" departDelay="0.50" arrival="156.00" arrivalLane="-1458438168_0" arrivalPos="42.15" arrivalSpeed="11.93" duration="22.00" routeLength="158.87" waitingTime="0.00" waitingCount="0" stopTime="0.00" timeLoss="7.59" rerouteNo="0" devices="tripinfo_veh267" vType="car" speedFactor="0.92" vaporized=""/>
    <tripinfo id="veh190" depart="96.00" departLane="-344126029#3_0" departPos="5.10" departSpeed="0.00" departDelay="1.00" arrival="157.00" arrivalLane="-1209952765_0" arrivalPos="28.50" arrivalSpeed="12.38" duration="61.00" routeLength="590.70" waitingTime="0.00" waitingCount="0" stopTime="0.00" timeLoss="10.41" rerouteNo="0" devices="tripinfo_veh190" vType="car" speedFactor="0.90" vaporized=""/>
    <tripinfo id="veh250" depart="127.00" departLane="345390446_0" departPos="5.10" departSpeed="0.00" departDelay="2.00" arrival="157.00" arrivalLane="345391008#1_0" arrivalPos="85.20" arrivalSpeed="12.44" duration="30.00" routeLength="248.66" waitingTime="0.00" waitingCount="0" stopTime="0.00" timeLoss="8.30" rerouteNo="0" devices="tripinfo_veh250" vType="car" speedFactor="0.93" vaporized=""/>
    <tripinfo id="veh219" depart="110.00" departLane="345390446_0" departPos="5.10" departSpeed="0.00" departDelay="0.50" arrival="159.00" arrivalLane="345390442#0_0" arrivalPos="71.20" arrivalSpeed="11.85" duration="49.00" routeLength="386.67" waitingTime="0.00" waitingCount="0" stopTime="0.00" timeLoss="14.34" rerouteNo="0" devices="tripinfo_veh219" vType="car" speedFactor="0.91" vaporized=""/>
    <tripinfo id="veh10" depart="5.00" departLane="1458156154_0" departPos="5.10" departSpeed="0.00" departDelay="0.00" arrival="160.00" arrivalLane="746834592#1_0" arrivalPos="38.31" arrivalSpeed="14.80" duration="155.00" routeLength="1126.16" waitingTime="73.00" waitingCount="1" stopTime="0.00" timeLoss="95.40" rerouteNo="0" devices="tripinfo_veh10" vType="car" speedFactor="1.09" vaporized=""/>
    <tripinfo id="veh3" depart="2.00" departLane="1209944601_0" departPos="5.10" departSpeed="0.00" departDelay="0.50" arrival="163.00" arrivalLane="-1050839644_0" arrivalPos="25.57" arrivalSpeed="10.90" duration="161.00" routeLength="1241.63" waitingTime="37.00" waitingCount="1" stopTime="0.00" timeLoss="74.82" rerouteNo="0" devices="tripinfo_veh3" vType="car" speedFactor="1.08" vaporized=""/>
    <tripinfo id="veh85" depart="43.00" departLane="-930291019#1_0" departPos="0.20" departSpeed="0.00" departDelay="0.50" arrival="164.00" arrivalLane="-344129938#3_0" arrivalPos="64.41" arrivalSpeed="12.86" duration="121.00" routeLength="1804.19" waitingTime="0.00" waitingCount="0" stopTime="0.00" timeLoss="25.49" rerouteNo="0" devices="tripinfo_veh85" vType="car" speedFactor="0.98" vaporized=""/>
    <tripinfo id="veh188" depart="94.00" departLane="-345390446_0" departPos="5.10" departSpeed="0.00" departDelay="0.00" arrival="165.00" arrivalLane="-1209730481_0" arrivalPos="121.51" arrivalSpeed="12.24" duration="71.00" routeLength="540.73" waitingTime="12.00" waitingCount="1" stopTime="0.00" timeLoss="34.18" rerouteNo="0" devices="tripinfo_veh188" vType="car" speedFactor="0.97" vaporized=""/>
    <tripinfo id="veh29" depart="15.00" departLane="-345391008#0_0" departPos="5.10" departSpeed="0.00" departDelay="0.50" arrival="167.00" arrivalLane="1209730481_0" arrivalPos="119.10" arrivalSpeed="12.46" duration="152.00" routeLength="923.97" waitingTime="48.00" waitingCount="2" stopTime="0.00" timeLoss="82.87" rerouteNo="0" devices="tripinfo_veh29" vType="car" speedFactor="0.93" vaporized=""/>
    <tripinfo id="veh179" depart="94.00" departLane="338648528#10_0" departPos="5.10" departSpeed="0.00" departDelay="4.50" arrival="170.00" arrivalLane="-749406407#1_0" arrivalPos="19.22" arrivalSpeed="13.77" duration="76.00" routeLength="949.04" waitingTime="0.00" waitingCount="0" stopTime="0.00" timeLoss="26.26" rerouteNo="0" devices="tripinfo_veh179" vType="car" speedFactor="1.06" vaporized=""/>
    <tripinfo id="veh170" depart="85.00" departLane="-338648528#3_0" departPos="4.57" departSpeed="0.00" departDelay="0.00" arrival="172.00" arrivalLane="-344126029#4_0" arrivalPos="66.41" arrivalSpeed="14.69" duration="87.00" routeLength="949.66" waitingTime="10.00" waitingCount="1" stopTime="0.00" timeLoss="45.83" rerouteNo="0" devices="tripinfo_veh170" vType="car" speedFactor="1.09" vaporized=""/>
    <tripinfo id="veh93" depart="47.00" departLane="802399801_0" departPos="5.10" departSpeed="0.00" departDelay="0.50" arrival="173.00" arrivalLane="802399777#3_0" arrivalPos="34.48" arrivalSpeed="11.63" duration="126.00" routeLength="1170.98" waitingTime="0.00" waitingCount="0" stopTime="0.00" timeLoss="35.51" rerouteNo="0" devices="tripinfo_veh93" vType="car" speedFactor="0.92" vaporized=""/>
    <tripinfo id="veh187" depart="94.00" departLane="344126024#0_0" departPos="5.10" departSpeed="0.00" departDelay="0.50" arrival="173.00" arrivalLane="344130935_0" arrivalPos="174.99" arrivalSpeed="11.25" duration="79.00" routeLength="804.67" waitingTime="0.00" waitingCount="0" stopTime="0.00" timeLoss="10.85" rerouteNo="0" devices="tripinfo_veh187" vType="car" speedFactor="0.89" vaporized=""/>
    <tripinfo id="veh257" depart="130.00" departLane="802486170#1_0" departPos="5.10" departSpeed="0.00" departDelay="1.50" arrival="174.00" arrivalLane="-265229350#5_0" arrivalPos="0.20" arrivalSpeed="6.30" duration="44.00" routeLength="385.00" waitingTime="3.00" waitingCount="1" stopTime="0.00" timeLoss="21.17" rerouteNo="0" devices="tripinfo_veh257" vType="car" speedFactor="1.30" vaporized=""/>
    <tripinfo id="veh23" depart="12.00" departLane="802399777#3_0" departPos="5.10" departSpeed="0.00" departDelay="0.50" arrival="175.00" arrivalLane="-1209732955_0" arrivalPos="63.79" arrivalSpeed="11.57" duration="163.00" routeLength="527.85" waitingTime="93.00" waitingCount="2" stopTime="0.00" timeLoss="118.22" rerouteNo="0" devices="tripinfo_veh23" vType="car" speedFactor="0.89" vaporized=""/>
    <tripinfo id="veh61" depart="31.00" departLane="-749407285_0" departPos="5.10" departSpeed="0.00" departDelay="0.50" arrival="177.00" arrivalLane="344126028#1_0" arrivalPos="47.16" arrivalSpeed="15.33" duration="146.00" routeLength="932.35" waitingTime="69.00" waitingCount="1" stopTime="0.00" timeLoss="98.09" rerouteNo="0" devices="tripinfo_veh61" vType="car" speedFactor="1.12" vaporized=""/>
    <tripinfo id="veh34" depart="17.00" departLane="344215905#3_0" departPos="5.10" departSpeed="0.00" departDelay="0.00" arrival="182.00" arrivalLane="345387876_0" arrivalPos="168.06" arrivalSpeed="12.93" duration="165.00" routeLength="1569.39" waitingTime="18.00" waitingCount="1" stopTime="0.00" timeLoss="48.96" rerouteNo="0" devices="tripinfo_veh34" vType="car" speedFactor="0.99" vaporized=""/>
    <tripinfo id="veh92" depart="46.00" departLane="-802399783_0" departPos="5.10" departSpeed="0.00" departDelay="0.00" arrival="184.00" arrivalLane="-344215905#2_0" arrivalPos="38.83" arrivalSpeed="11.57" duration="138.00" routeLength="1171.66" waitingTime="26.00" waitingCount="3" stopTime="0.00" timeLoss="71.10" rerouteNo="0" devices="tripinfo_veh92" vType="car" speedFactor="0.83" vaporized=""/>
    <tripinfo id="veh52" depart="26.00" departLane="-802516074#0_0" departPos="5.10" departSpeed="0.00" departDelay="0.00" arrival="185.00" arrivalLane="-345391008#0_0" arrivalPos="171.22" arrivalSpeed="3.98" duration="159.00" routeLength="616.10" waitingTime="90.00" waitingCount="3" stopTime="0.00" timeLoss="115.72" rerouteNo="0" devices="tripinfo_veh52" vType="car" speedFactor="1.02" vaporized=""/>
    <tripinfo id="veh80" depart="40.00" departLane="-802399783_0" departPos="5.10" departSpeed="0.00" departDelay="0.00" arrival="185.00" arrivalLane="345391009#2_0" arrivalPos="162.36" arrivalSpeed="14.06" duration="145.00" routeLength="1083.20" waitingTime="44.00" waitingCount="2" stopTime="0.00" timeLoss="73.85" rerouteNo="0" devices="tripinfo_veh80" vType="car" speedFactor="1.03" vaporized=""/>
    <tripinfo id="veh181" depart="91.00" departLane="1209728804_0" departPos="5.10" departSpeed="0.00" departDelay="0.50" arrival="186.00" arrivalLane="-749334674_0" arrivalPos="47.67" arrivalSpeed="2.69" duration="95.00" routeLength="400.04" waitingTime="0.00" waitingCount="0" stopTime="0.00" timeLoss="21.02" rerouteNo="0" devices="tripinfo_veh181" vType="car" speedFactor="1.03" vaporized=""/>
    <tripinfo id="veh288" depart="144.00" departLane="802399780_0" departPos="5.10" departSpeed="0.00" departDelay="0.00" arrival="191.00" arrivalLane="802399777#2_0" arrivalPos="113.98" arrivalSpeed="14.13" duration="47.00" routeLength="496.71" waitingTime="0.00" waitingCount="0" stopTime="0.00" timeLoss="12.30" rerouteNo="0" devices="tripinfo_veh288" vType="car" speedFactor="1.10" vaporized=""/>
    <tripinfo id="veh13" depart="7.00" departLane="344215905#2_0" departPos="5.10" departSpeed="0.00" departDelay="0.50" arrival="192.00" arrivalLane="344126029#2_0" arrivalPos="55.52" arrivalSpeed="15.50" duration="185.00" routeLength="1268.99" waitingTime="79.00" waitingCount="3" stopTime="0.00" timeLoss="116.19" rerouteNo="0" devices="tripinfo_veh13" vType="car" speedFactor="1.12" vaporized=""/>
    <tripinfo id="veh12" depart="6.00" departLane="-802412032#0_0" departPos="5.10" departSpeed="0.00" departDelay="0.00" arrival="194.00" arrivalLane="-746834592#0_0" arrivalPos="26.30" arrivalSpeed="10.06" duration="188.00" routeLength="1110.79" waitingTime="55.00" waitingCount="3" stopTime="0.00" timeLoss="110.18" rerouteNo="0" devices="tripinfo_veh12" vType="car" speedFactor="1.05" vaporized=""/>
    <tripinfo id="veh53" depart="27.00" departLane="802516059#0_0" departPos="5.10" departSpeed="0.00" departDelay="0.50" arrival="195.00" arrivalLane="-746560520#0_0" arrivalPos="333.30" arrivalSpeed="5.20" duration="168.00" routeLength="1361.23" waitingTime="40.00" waitingCount="3" stopTime="0.00" timeLoss="90.30" rerouteNo="0" devices="tripinfo_veh53" vType="car" speedFactor="1.10" vaporized=""/>
    <tripinfo id="veh20" depart="10.00" departLane="1207396415_0" departPos="5.10" departSpeed="0.00" departDelay="0.00" arrival="200.00" arrivalLane="1458156149#0_0" arrivalPos="57.02" arrivalSpeed="1.62" duration="190.00" routeLength="1190.14" waitingTime="18.00" waitingCount="2" stopTime="0.00" timeLoss="64.22" rerouteNo="0" devices="tripinfo_veh20" vType="car" speedFactor="1.02" vaporized=""/>
    <tripinfo id="veh228" depart="114.00" departLane="-802516066_0" departPos="5.10" departSpeed="0.00" departDelay="0.00" arrival="201.00" arrivalLane="-802486170#0_0" arrivalPos="115.94" arrivalSpeed="13.88" duration="87.00" routeLength="609.14" waitingTime="5.00" waitingCount="2" stopTime="0.00" timeLoss="24.12" rerouteNo="0" devices="tripinfo_veh228" vType="car" speedFactor="1.09" vaporized=""/>