<?xml version="1.0" encoding="UTF-8"?>

<!-- generated on 2026-03-17 23:33:38 by Eclipse SUMO sumo Version 1.24.0
<sumoConfiguration xmlns:xsi="http://www.w3.org/2001/XMLSchema-instance" xsi:noNamespaceSchemaLocation="http://sumo.dlr.de/xsd/sumoConfiguration.xsd">

    <input>
        <net-file value="best_map.net.xml"/>
        <route-files value="simulation_optimized.rou.xml"/>
    </input>

    <output>
        <tripinfo-output value="tripinfo_new.xml"/>
    </output>

    <report>
        <duration-log.statistics value="true"/>
    </report>

</sumoConfiguration>
-->

<tripinfos xmlns:xsi="http://www.w3.org/2001/XMLSchema-instance" xsi:noNamespaceSchemaLocation="http://sumo.dlr.de/xsd/tripinfo_file.xsd">
    <tripinfo id="veh4" depart="2.00" departLane="-389935994#6_0" departPos="5.10" departSpeed="0.00" departDelay="0.00" arrival="45.00" arrivalLane="957927680_0" arrivalPos="30.58" arrivalSpeed="14.46" duration="43.00" routeLength="618.39" waitingTime="0.00" waitingCount="0" stopTime="0.00" timeLoss="11.78" rerouteNo="0" devices="tripinfo_veh4" vType="car" speedFactor="1.08" vaporized=""/>
    <tripinfo id="veh45" depart="23.00" departLane="754481683#2_0" departPos="5.10" departSpeed="0.00" departDelay="0.50" arrival="74.00" arrivalLane="-957927495_0" arrivalPos="33.99" arrivalSpeed="11.06" duration="51.00" routeLength="605.72" waitingTime="0.00" waitingCount="0" stopTime="0.00" timeLoss="16.39" rerouteNo="0" devices="tripinfo_veh45" vType="car" speedFactor="0.90" vaporized=""/>
    <tripinfo id="veh36" depart="18.00" departLane="-389934193#0_0" departPos="5.10" departSpeed="0.00" departDelay="0.00" arrival="81.00" arrivalLane="536069245#1_0" arrivalPos="22.81" arrivalSpeed="11.13" duration="63.00" routeLength="645.03" waitingTime="0.00" waitingCount="0" stopTime="0.00" timeLoss="24.93" rerouteNo="0" devices="tripinfo_veh36" vType="car" speedFactor="1.01" vaporized=""/>
    <tripinfo id="veh35" depart="18.00" departLane="389934193#2_0" departPos="5.10" departSpeed="0.00" departDelay="0.50" arrival="82.00" arrivalLane="-960733242#1_0" arrivalPos="131.24" arrivalSpeed="14.88" duration="64.00" routeLength="859.18" waitingTime="0.00" waitingCount="0" stopTime="0.00" timeLoss="15.42" rerouteNo="0" devices="tripinfo_veh35" vType="car" speedFactor="1.15" vaporized=""/>
    <tripinfo id="veh16" depart="8.00" departLane="826933356#4_0" departPos="5.10" departSpeed="0.00" departDelay="0.00" arrival="83.00" arrivalLane="748016296_0" arrivalPos="283.06" arrivalSpeed="12.74" duration="75.00" routeLength="1015.76" waitingTime="0.00" waitingCount="0" stopTime="0.00" timeLoss="15.13" rerouteNo="0" devices="tripinfo_veh16" vType="car" speedFactor="0.93" vaporized=""/>
    <tripinfo id="veh26" depart="14.00" departLane="-747995214#2_0" departPos="5.10" departSpeed="0.00" departDelay="1.00" arrival="91.00" arrivalLane="-957927680_0" arrivalPos="36.09" arrivalSpeed="10.76" duration="77.00" routeLength="797.11" waitingTime="0.00" waitingCount="0" stopTime="0.00" timeLoss="22.30" rerouteNo="0" devices="tripinfo_veh26" vType="car" speedFactor="0.83" vaporized=""/>
    <tripinfo id="veh8" depart="4.00" departLane="-286376619_0" departPos="5.10" departSpeed="0.00" departDelay="0.00" arrival="94.00" arrivalLane="-960732608_0" arrivalPos="120.18" arrivalSpeed="11.80" duration="90.00" routeLength="955.85" waitingTime="0.00" waitingCount="0" stopTime="0.00" timeLoss="19.37" rerouteNo="0" devices="tripinfo_veh8" vType="car" speedFactor="0.89" vaporized=""/>
    <tripinfo id="veh43" depart="22.00" departLane="-1077915957_0" departPos="5.10" departSpeed="0.00" departDelay="0.50" arrival="94.00" arrivalLane="389944016#2_0" arrivalPos="169.17" arrivalSpeed="14.23" duration="72.00" routeLength="708.13" waitingTime="8.00" waitingCount="1" stopTime="0.00" timeLoss="26.19" rerouteNo="0" devices="tripinfo_veh43" vType="car" speedFactor="1.18" vaporized=""/>
    <tripinfo id="veh64" depart="32.00" departLane="747995210#1_0" departPos="5.10" departSpeed="0.00" departDelay="0.00" arrival="94.00" arrivalLane="965152757_0" arrivalPos="64.10" arrivalSpeed="21.25" duration="62.00" routeLength="809.40" waitingTime="0.00" waitingCount="0" stopTime="0.00" timeLoss="22.38" rerouteNo="0" devices="tripinfo_veh64" vType="car" speedFactor="1.02" vaporized=""/>
    <tripinfo id="veh37" depart="19.00" departLane="-389933122#4_0" departPos="0.20" departSpeed="0.00" departDelay="0.50" arrival="96.00" arrivalLane="-535935820#4_0" arrivalPos="33.05" arrivalSpeed="11.35" duration="77.00" routeLength="1131.31" waitingTime="0.00" waitingCount="0" stopTime="0.00" timeLoss="20.58" rerouteNo="0" devices="tripinfo_veh37" vType="car" speedFactor="1.17" vaporized=""/>
    <tripinfo id="veh34" depart="17.00" departLane="-754240703#3_0" departPos="5.10" departSpeed="0.00" departDelay="0.00" arrival="98.00" arrivalLane="-747995210#1_0" arrivalPos="19.73" arrivalSpeed="8.87" duration="81.00" routeLength="985.49" waitingTime="0.00" waitingCount="0" stopTime="0.00" timeLoss="28.83" rerouteNo="0" devices="tripinfo_veh34" vType="car" speedFactor="1.18" vaporized=""/>
    <tripinfo id="veh87" depart="44.00" departLane="1189302973_0" departPos="5.10" departSpeed="0.00" departDelay="0.50" arrival="100.00" arrivalLane="-389933122#5_0" arrivalPos="239.85" arrivalSpeed="27.70" duration="56.00" routeLength="688.89" waitingTime="0.00" waitingCount="0" stopTime="0.00" timeLoss="13.65" rerouteNo="0" devices="tripinfo_veh87" vType="car" speedFactor="1.00" vaporized=""/>
    <tripinfo id="veh93" depart="50.00" departLane="389934193#1_0" departPos="5.10" departSpeed="0.00" departDelay="3.50" arrival="112.00" arrivalLane="-389944434#0_0" arrivalPos="282.18" arrivalSpeed="13.19" duration="62.00" routeLength="754.06" waitingTime="0.00" waitingCount="0" stopTime="0.00" timeLoss="14.94" rerouteNo="0" devices="tripinfo_veh93" vType="car" speedFactor="1.04" vaporized=""/>
    <tripinfo id="veh151" depart="76.00" departLane="1378252912_0" departPos="5.10" departSpeed="0.00" departDelay="0.50" arrival="112.00" arrivalLane="535936518#0_0" arrivalPos="240.07" arrivalSpeed="12.36" duration="36.00" routeLength="405.02" waitingTime="0.00" waitingCount="0" stopTime="0.00" timeLoss="4.20" rerouteNo="0" devices="tripinfo_veh151" vType="car" speedFactor="0.94" vaporized=""/>
    <tripinfo id="veh183" depart="92.00" departLane="-389933122#2_0" departPos="5.10" departSpeed="0.00" departDelay="0.50" arrival="115.00" arrivalLane="-797563396#2_0" arrivalPos="78.51" arrivalSpeed="12.62" duration="23.00" routeLength="241.33" waitingTime="0.00" waitingCount="0" stopTime="0.00" timeLoss="9.01" rerouteNo="0" devices="tripinfo_veh183" vType="car" speedFactor="0.96" vaporized=""/>
    <tripinfo id="veh152" depart="78.00" departLane="-825130075#1_0" departPos="5.10" departSpeed="0.00" departDelay="2.00" arrival="119.00" arrivalLane="825130075#0_0" arrivalPos="190.27" arrivalSpeed="15.21" duration="41.00" routeLength="489.07" waitingTime="0.00" waitingCount="0" stopTime="0.00" timeLoss="8.16" rerouteNo="0" devices="tripinfo_veh152" vType="car" speedFactor="1.13" vaporized=""/>
    <tripinfo id="veh51" depart="26.00" departLane="169359641#1_0" departPos="5.10" departSpeed="0.00" departDelay="0.50" arrival="125.00" arrivalLane="927742960_0" arrivalPos="22.32" arrivalSpeed="12.62" duration="99.00" routeLength="1437.76" waitingTime="0.00" waitingCount="0" stopTime="0.00" timeLoss="22.62" rerouteNo="0" devices="tripinfo_veh51" vType="car" speedFactor="1.09" vaporized=""/>
    <tripinfo id="veh56" depart="28.00" departLane="-797563396#0_0" departPos="5.10" departSpeed="0.00" departDelay="0.00" arrival="127.00" arrivalLane="-754481683#1_0" arrivalPos="88.87" arrivalSpeed="15.33" duration="99.00" routeLength="1332.64" waitingTime="4.00" waitingCount="2" stopTime="0.00" timeLoss="24.96" rerouteNo="0" devices="tripinfo_veh56" vType="car" speedFactor="0.85" vaporized=""/>
    <tripinfo id="veh76" depart="38.00" departLane="-389933122#5_0" departPos="5.10" departSpeed="0.00" departDelay="0.00" arrival="132.00" arrivalLane="-747995217#1_0" arrivalPos="331.82" arrivalSpeed="13.65" duration="94.00" routeLength="1160.84" waitingTime="0.00" waitingCount="0" stopTime="0.00" timeLoss="18.29" rerouteNo="0" devices="tripinfo_veh76" vType="car" speedFactor="1.02" vaporized=""/>
    <tripinfo id="veh47" depart="24.00" departLane="535935820#2_0" departPos="5.10" departSpeed="0.00" departDelay="0.50" arrival="135.00" arrivalLane="756206420_0" arrivalPos="33.65" arrivalSpeed="12.54" duration="111.00" routeLength="1686.77" waitingTime="3.00" waitingCount="1" stopTime="0.00" timeLoss="22.61" rerouteNo="0" devices="tripinfo_veh47" vType="car" speedFactor="0.96" vaporized=""/>
    <tripinfo id="veh68" depart="34.00" departLane="678343424#0_0" departPos="5.10" departSpeed="0.00" departDelay="0.00" arrival="135.00" arrivalLane="738434647#1_0" arrivalPos="0.10" arrivalSpeed="27.62" duration="101.00" routeLength="1193.66" waitingTime="10.00" waitingCount="1" stopTime="0.00" timeLoss="33.71" rerouteNo="0" devices="tripinfo_veh68" vType="car" speedFactor="1.02" vaporized=""/>
    <tripinfo id="veh168" depart="84.00" departLane="1378252912_0" departPos="5.10" departSpeed="0.00" departDelay="0.00" arrival="136.00" arrivalLane="1378252900_0" arrivalPos="124.93" arrivalSpeed="15.63" duration="52.00" routeLength="650.88" waitingTime="0.00" waitingCount="0" stopTime="0.00" timeLoss="9.08" rerouteNo="0" devices="tripinfo_veh168" vType="car" speedFactor="1.14" vaporized=""/>
    <tripinfo id="veh18" depart="9.00" departLane="389933122#3_0" departPos="5.10" departSpeed="0.00" departDelay="0.00" arrival="137.00" arrivalLane="-535936518#0_0" arrivalPos="245.21" arrivalSpeed="11.42" duration="128.00" routeLength="1387.27" waitingTime="0.00" waitingCount="0" stopTime="0.00" timeLoss="15.45" rerouteNo="0" devices="tripinfo_veh18" vType="car" speedFactor="0.88" vaporized=""/>
    <tripinfo id="veh10" depart="5.00" departLane="957927982_0" departPos="5.10" departSpeed="0.00" departDelay="0.00" arrival="139.00" arrivalLane="-747995214#0_0" arrivalPos="346.72" arrivalSpeed="18.16" duration="134.00" routeLength="1832.58" waitingTime="0.00" waitingCount="0" stopTime="0.00" timeLoss="22.22" rerouteNo="0" devices="tripinfo_veh10" vType="car" speedFactor="0.86" vaporized=""/>
    <tripinfo id="veh66" depart="33.00" departLane="747995210#5_0" departPos="5.10" departSpeed="0.00" departDelay="0.00" arrival="139.00" arrivalLane="-678343424#0_0" arrivalPos="115.74" arrivalSpeed="14.11" duration="106.00" routeLength="1276.45" waitingTime="4.00" waitingCount="1" stopTime="0.00" timeLoss="31.97" rerouteNo="0" devices="tripinfo_veh66" vType="car" speedFactor="1.08" vaporized=""/>
    <tripinfo id="veh71" depart="36.00" departLane="-1378252918#1_0" departPos="5.10" departSpeed="0.00" departDelay="0.50" arrival="141.00" arrivalLane="-1309998212#2_0" arrivalPos="129.88" arrivalSpeed="11.80" duration="105.00" routeLength="941.88" waitingTime="1.00" waitingCount="1" stopTime="0.00" timeLoss="22.79" rerouteNo="0" devices="tripinfo_veh71" vType="car" speedFactor="0.88" vaporized=""/>
    <tripinfo id="veh1" depart="1.00" departLane="-535935820#2_0" departPos="5.10" departSpeed="0.00" departDelay="0.50" arrival="142.00" arrivalLane="389944259#4_0" arrivalPos="188.48" arrivalSpeed="14.51" duration="141.00" routeLength="2399.09" waitingTime="0.00" waitingCount="0" stopTime="0.00" timeLoss="15.62" rerouteNo="0" devices="tripinfo_veh1" vType="car" speedFactor="1.06" vaporized=""/>
    <tripinfo id="veh145" depart="73.00" departLane="-1378248861_0" departPos="5.10" departSpeed="0.00" departDelay="0.50" arrival="142.00" arrivalLane="798269714#0_0" arrivalPos="112.82" arrivalSpeed="13.46" duration="69.00" routeLength="1019.52" waitingTime="0.00" waitingCount="0" stopTime="0.00" timeLoss="17.14" rerouteNo="0" devices="tripinfo_veh145" vType="car" speedFactor="1.02" vaporized=""/>
    <tripinfo id="veh44" depart="22.00" departLane="747995215#0_0" departPos="5.10" departSpeed="0.00" departDelay="0.00" arrival="143.00" arrivalLane="-747995215#3_0" arrivalPos="202.58" arrivalSpeed="14.45" duration="121.00" routeLength="1667.37" waitingTime="0.00" waitingCount="0" stopTime="0.00" timeLoss="11.03" rerouteNo="0" devices="tripinfo_veh44" vType="car" speedFactor="1.10" vaporized=""/>
    <tripinfo id="veh157" depart="79.00" departLane="-968863701_0" departPos="0.20" departSpeed="0.00" departDelay="0.50" arrival="143.00" arrivalLane="-754481683#2_0" arrivalPos="140.53" arrivalSpeed="20.42" duration="64.00" routeLength="637.01" waitingTime="1.00" waitingCount="1" stopTime="0.00" timeLoss="20.82" rerouteNo="0" devices="tripinfo_veh157" vType="car" speedFactor="0.97" vaporized=""/>
    <tripinfo id="veh52" depart="26.00" departLane="-536069245#0_0" departPos="5.10" departSpeed="0.00" departDelay="0.00" arrival="153.00" arrivalLane="536069031#0_0" arrivalPos="267.43" arrivalSpeed="12.97" duration="127.00" routeLength="1409.95" waitingTime="0.00" waitingCount="0" stopTime="0.00" timeLoss="29.12" rerouteNo="0" devices="tripinfo_veh52" vType="car" speedFactor="1.00" vaporized=""/>
    <tripinfo id="veh57" depart="29.00" departLane="754481683#1_0" departPos="5.10" departSpeed="0.00" departDelay="0.50" arrival="155.00" arrivalLane="-1137585466#1_0" arrivalPos="148.77" arrivalSpeed="15.63" duration="126.00" routeLength="1209.52" waitingTime="22.00" waitingCount="1" stopTime="0.00" timeLoss="62.35" rerouteNo="0" devices="tripinfo_veh57" vType="car" speedFactor="1.17" vaporized=""/>
    <tripinfo id="veh62" depart="31.00" departLane="-1145058117#0_0" departPos="5.10" departSpeed="0.00" departDelay="0.00" arrival="155.00" arrivalLane="-389944016#1_0" arrivalPos="441.65" arrivalSpeed="12.29" duration="124.00" routeLength="1405.84" waitingTime="0.00" waitingCount="0" stopTime="0.00" timeLoss="19.97" rerouteNo="0" devices="tripinfo_veh62" vType="car" speedFactor="0.90" vaporized=""/>
    <tripinfo id="veh20" depart="10.00" departLane="-678343091_0" departPos="5.10" departSpeed="0.00" departDelay="0.00" arrival="157.00" arrivalLane="-957927495_0" arrivalPos="33.99" arrivalSpeed="12.07" duration="147.00" routeLength="1506.87" waitingTime="15.00" waitingCount="1" stopTime="0.00" timeLoss="43.00" rerouteNo="0" devices="tripinfo_veh20" vType="car" speedFactor="0.94" vaporized=""/>
    <tripinfo id="veh112" depart="56.00" departLane="389933122#8_0" departPos="5.10" departSpeed="0.00" departDelay="0.00" arrival="159.00" arrivalLane="-825130075#2_0" arrivalPos="171.60" arrivalSpeed="13.74" duration="103.00" routeLength="1181.32" waitingTime="11.00" waitingCount="1" stopTime="0.00" timeLoss="39.77" rerouteNo="0" devices="tripinfo_veh112" vType="car" speedFactor="1.01" vaporized=""/>
    <tripinfo id="veh154" depart="77.00" departLane="286376619_0" departPos="5.10" departSpeed="0.00" departDelay="0.00" arrival="160.00" arrivalLane="888806189#1_0" arrivalPos="280.87" arrivalSpeed="15.03" duration="83.00" routeLength="807.03" waitingTime="12.00" waitingCount="2" stopTime="0.00" timeLoss="33.99" rerouteNo="0" devices="tripinfo_veh154" vType="car" speedFactor="1.14" vaporized=""/>
    <tripinfo id="veh155" depart="78.00" departLane="-895435633_0" departPos="5.10" departSpeed="0.00" departDelay="0.50" arrival="161.00" arrivalLane="-754481682_0" arrivalPos="24.16" arrivalSpeed="18.46" duration="83.00" routeLength="1096.21" waitingTime="0.00" waitingCount="0" stopTime="0.00" timeLoss="23.19" rerouteNo="0" devices="tripinfo_veh155" vType="car" speedFactor="0.89" vaporized=""/>
    <tripinfo id="veh163" depart="82.00" departLane="1309998215#0_0" departPos="5.10" departSpeed="0.00" departDelay="0.50" arrival="161.00" arrivalLane="-389934193#2_0" arrivalPos="13.12" arrivalSpeed="6.88" duration="79.00" routeLength="938.23" waitingTime="0.00" waitingCount="0" stopTime="0.00" timeLoss="21.61" rerouteNo="0" devices="tripinfo_veh163" vType="car" speedFactor="1.06" vaporized=""/>
    <tripinfo id="veh190" depart="95.00" departLane="-389933122#4_0" departPos="0.20" departSpeed="0.00" departDelay="0.00" arrival="161.00" arrivalLane="-148462086#4_0" arrivalPos="50.50" arrivalSpeed="14.62" duration="66.00" routeLength="1091.10" waitingTime="0.00" waitingCount="0" stopTime="0.00" timeLoss="15.36" rerouteNo="0" devices="tripinfo_veh190" vType="car" speedFactor="1.03" vaporized=""/>
    <tripinfo id="veh46" depart="23.00" departLane="-1166376808_0" departPos="5.10" departSpeed="0.00" departDelay="0.00" arrival="162.00" arrivalLane="-535937546#2_0" arrivalPos="188.21" arrivalSpeed="13.06" duration="139.00" routeLength="1925.23" waitingTime="0.00" waitingCount="0" stopTime="0.00" timeLoss="29.77" rerouteNo="0" devices="tripinfo_veh46" vType="car" speedFactor="1.03" vaporized=""/>
    <tripinfo id="veh137" depart="69.00" departLane="-747995217#2_0" departPos="5.10" departSpeed="0.00" departDelay="0.50" arrival="163.00" arrivalLane="535937546#3_0" arrivalPos="19.51" arrivalSpeed="11.34" duration="94.00" routeLength="1155.91" waitingTime="0.00" waitingCount="0" stopTime="0.00" timeLoss="13.64" rerouteNo="0" devices="tripinfo_veh137" vType="car" speedFactor="1.07" vaporized=""/>
    <tripinfo id="veh32" depart="16.00" departLane="-389944013#3_0" departPos="5.10" departSpeed="0.00" departDelay="0.00" arrival="164.00" arrivalLane="-1309998213_0" arrivalPos="23.67" arrivalSpeed="10.38" duration="148.00" routeLength="1954.93" waitingTime="0.00" waitingCount="0" stopTime="0.00" timeLoss="27.29" rerouteNo="0" devices="tripinfo_veh32" vType="car" speedFactor="1.13" vaporized=""/>
    <tripinfo id="veh120" depart="60.00" departLane="1378258303_0" departPos="5.10" departSpeed="0.00" departDelay="0.00" arrival="168.00" arrivalLane="825130075#2_0" arrivalPos="171.51" arrivalSpeed="14.40" duration="108.00" routeLength="1297.60" waitingTime="0.00" waitingCount="0" stopTime="0.00" timeLoss="19.26" rerouteNo="0" devices="tripinfo_veh120" vType="car" speedFactor="1.10" vaporized=""/>
    <tripinfo id="veh96" depart="48.00" departLane="-757509934#2_0" departPos="5.10" departSpeed="0.00" departDelay="0.00" arrival="170.00" arrivalLane="754481684#1_0" arrivalPos="234.97" arrivalSpeed="14.06" duration="122.00" routeLength="1606.12" waitingTime="0.00" waitingCount="0" stopTime="0.00" timeLoss="17.90" rerouteNo="0" devices="tripinfo_veh96" vType="car" speedFactor="1.02" vaporized=""/>
    <tripinfo id="veh106" depart="53.00" departLane="826933356#2_0" departPos="5.10" departSpeed="0.00" departDelay="0.00" arrival="170.00" arrivalLane="888806189#0_0" arrivalPos="179.39" arrivalSpeed="14.32" duration="117.00" routeLength="1634.99" waitingTime="0.00" waitingCount="0" stopTime="0.00" timeLoss="28.41" rerouteNo="0" devices="tripinfo_veh106" vType="car" speedFactor="1.06" vaporized=""/>
    <tripinfo id="veh228" depart="116.00" departLane="1175380689#1_0" departPos="5.10" departSpeed="0.00" departDelay="2.00" arrival="177.00" arrivalLane="389934469_0" arrivalPos="46.25" arrivalSpeed="14.15" duration="61.00" routeLength="611.76" waitingTime="0.00" waitingCount="0" stopTime="0.00" timeLoss="26.02" rerouteNo="0" devices="tripinfo_veh228" vType="car" speedFactor="1.07" vaporized=""/>
    <tripinfo id="veh22" depart="11.00" departLane="-1175380689#1_0" departPos="5.10" departSpeed="0.00" departDelay="0.00" arrival="178.00" arrivalLane="-389944013#4_0" arrivalPos="695.30" arrivalSpeed="13.94" duration="167.00" routeLength="2267.11" waitingTime="6.00" waitingCount="1" stopTime="0.00" timeLoss="31.17" rerouteNo="0" devices="tripinfo_veh22" vType="car" speedFactor="1.02" vaporized=""/>
    <tripinfo id="veh13" depart="7.00" departLane="957927849_0" departPos="5.10" departSpeed="0.00" departDelay="0.50" arrival="183.00" arrivalLane="927742829#1_0" arrivalPos="94.80" arrivalSpeed="13.42" duration="176.00" routeLength="2328.14" waitingTime="2.00" waitingCount="1" stopTime="0.00" timeLoss="37.67" rerouteNo="0" devices="tripinfo_veh13" vType="car" speedFactor="1.05" vaporized=""/>
    <tripinfo id="veh174" depart="87.00" departLane="-389934192#3_0" departPos="5.10" departSpeed="0.00" departDelay="0.00" arrival="183.00" arrivalLane="-389934193#1_0" arrivalPos="145.50" arrivalSpeed="19.80" duration="96.00" routeLength="1080.67" waitingTime="0.00" waitingCount="0" stopTime="0.00" timeLoss="20.61" rerouteNo="0" devices="tripinfo_veh174" vType="car" speedFactor="0.91" vaporized=""/>
    <tripinfo id="veh7" depart="4.00" departLane="148462086#0_0" departPos="5.10" departSpeed="0.00" departDelay="0.50" arrival="186.00" arrivalLane="-286375718_0" arrivalPos="57.16" arrivalSpeed="13.80" duration="182.00" routeLength="2591.38" waitingTime="0.00" waitingCount="0" stopTime="0.00" timeLoss="34.90" rerouteNo="0" devices="tripinfo_veh7" vType="car" speedFactor="1.05" vaporized=""/>
    <tripinfo id="veh83" depart="42.00" departLane="754240703#1_0" departPos="5.10" departSpeed="0.00" departDelay="0.50" arrival="189.00" arrivalLane="535937546#2_0" arrivalPos="189.57" arrivalSpeed="13.16" duration="147.00" routeLength="1839.71" waitingTime="0.00" waitingCount="0" stopTime="0.00" timeLoss="35.94" rerouteNo="0" devices="tripinfo_veh83" vType="car" speedFactor="0.98" vaporized=""/>
    <tripinfo id="veh102" depart="51.00" departLane="389935994#3_0" departPos="5.10" departSpeed="0.00" departDelay="0.00" arrival="189.00" arrivalLane="957928613_0" arrivalPos="126.92" arrivalSpeed="13.47" duration="138.00" routeLength="2000.13" waitingTime="0.00" waitingCount="0" stopTime="0.00" timeLoss="31.09" rerouteNo="0" devices="tripinfo_veh102" vType="car" speedFactor="1.01" vaporized=""/>
    <tripinfo id="veh23" depart="12.00" departLane="-957099727_0" departPos="5.10" departSpeed="0.00" departDelay="0.50" arrival="190.00" arrivalLane="1309998214_0" arrivalPos="180.28" arrivalSpeed="13.32" duration="178.00" routeLength="1674.09" waitingTime="30.00" waitingCount="2" stopTime="0.00" timeLoss="58.88" rerouteNo="0" devices="tripinfo_veh23" vType="car" speedFactor="1.01" vaporized=""/>
    <tripinfo id="veh197" depart="99.00" departLane="-389933122#11_0" departPos="1.58" departSpeed="0.00" departDelay="0.50" arrival="190.00" arrivalLane="-757509934#2_0" arrivalPos="6.24" arrivalSpeed="9.95" duration="91.00" routeLength="1273.49" waitingTime="12.00" waitingCount="1" stopTime="0.00" timeLoss="34.89" rerouteNo="0" devices="tripinfo_veh197" vType="car" speedFactor="0.97" vaporized=""/>
    <tripinfo id="veh169" depart="85.00" departLane="-754806405#1_0" departPos="5.10" departSpeed="0.00" departDelay="0.50" arrival="191.00" arrivalLane="927754422_0" arrivalPos="72.25" arrivalSpeed="11.36" duration="106.00" routeLength="1289.56" waitingTime="0.00" waitingCount="0" stopTime="0.00" timeLoss="20.11" rerouteNo="0" devices="tripinfo_veh169" vType="car" speedFactor="0.88" vaporized=""/>
    <tripinfo id="veh309" depart="155.00" departLane="-389935995#1_0" departPos="5.10" departSpeed="0.00" departDelay="0.50" arrival="191.00" arrivalLane="-148462086#4_0" arrivalPos="50.50" arrivalSpeed="16.72" duration="36.00" routeLength="314.10" waitingTime="0.00" waitingCount="0" stopTime="0.00" timeLoss="14.56" rerouteNo="0" devices="tripinfo_veh309" vType="car" speedFactor="1.10" vaporized=""/>
    <tripinfo id="veh107" depart="54.00" departLane="754481683#0_0" departPos="5.10" departSpeed="0.00" departDelay="0.50" arrival="192.00" arrivalLane="389944013#2_0" arrivalPos="379.51" arrivalSpeed="12.24" duration="138.00" routeLength="1568.95" waitingTime="0.00" waitingCount="0" stopTime="0.00" timeLoss="32.19" rerouteNo="0" devices="tripinfo_veh107" vType="car" speedFactor="0.96" vaporized=""/>
    <tripinfo id="veh123" depart="62.00" departLane="797563396#2_0" departPos="5.10" departSpeed="0.00" departDelay="0.50" arrival="192.00" arrivalLane="754481683#3_0" arrivalPos="88.82" arrivalSpeed="22.15" duration="130.00" routeLength="1866.77" waitingTime="21.00" waitingCount="2" stopTime="0.00" timeLoss="50.82" rerouteNo="0" devices="tripinfo_veh123" vType="car" speedFactor="1.00" vaporized=""/>
    <tripinfo id="veh70" depart="35.00" departLane="1206064607#3_0" departPos="5.10" departSpeed="0.00" departDelay="0.00" arrival="193.00" arrivalLane="-389934193#5_0" arrivalPos="134.44" arrivalSpeed="7.88" duration="158.00" routeLength="1516.72" waitingTime="34.00" waitingCount="1" stopTime="0.00" timeLoss="65.94" rerouteNo="0" devices="tripinfo_veh70" vType="car" speedFactor="0.94" vaporized=""/>
    <tripinfo id="veh72" depart="36.00" departLane="389934193#1_0" departPos="5.10" departSpeed="0.00" departDelay="0.00" arrival="198.00" arrivalLane="-678343424#0_0" arrivalPos="115.74" arrivalSpeed="11.31" duration="162.00" routeLength="2108.40" waitingTime="0.00" waitingCount="0" stopTime="0.00" timeLoss="34.41" rerouteNo="0" devices="tripinfo_veh72" vType="car" speedFactor="0.91" vaporized=""/>
    <tripinfo id="veh244" depart="122.00" departLane="965152757_0" departPos="5.10" departSpeed="0.00" departDelay="0.00" arrival="199.00" arrivalLane="-754240703#3_0" arrivalPos="264.59" arrivalSpeed="24.13" duration="77.00" routeLength="1334.94" waitingTime="0.00" waitingCount="0" stopTime="0.00" timeLoss="21.85" rerouteNo="0" devices="tripinfo_veh244" vType="car" speedFactor="0.91" vaporized=""/>
    <tripinfo id="veh303" depart="154.00" departLane="148462086#0_0" departPos="5.10" departSpeed="0.00" departDelay="2.50" arrival="199.00" arrivalLane="-148462086#2_0" arrivalPos="265.52" arrivalSpeed="21.25" duration="45.00" routeLength="688.21" waitingTime="0.00" waitingCount="0" stopTime="0.00" timeLoss="12.16" rerouteNo="0" devices="tripinfo_veh303" vType="car" speedFactor="0.97" vaporized=""/>
    <tripinfo id="veh366" depart="183.00" departLane="-389933122#4_0" departPos="0.20" departSpeed="0.00" departDelay="0.00" arrival="201.00" arrivalLane="389933122#5_0" arrivalPos="239.58" arrivalSpeed="26.64" duration="18.00" routeLength="257.22" waitingTime="0.00" waitingCount="0" stopTime="0.00" timeLoss="6.79" rerouteNo="0" devices="tripinfo_veh366" vType="car" speedFactor="0.97" vaporized=""/>
    <tripinfo id="veh171" depart="86.00" departLane="-747995214#0_0" departPos="5.10" departSpeed="0.00" departDelay="0.50" arrival="203.00" arrivalLane="-738434647#1_0" arrivalPos="0.10" arrivalSpeed="23.50" duration="117.00" routeLength="2248.30" waitingTime="0.00" waitingCount="0" stopTime="0.00" timeLoss="29.22" rerouteNo="0" devices="tripinfo_veh171" vType="car" speedFactor="0.99" vaporized=""/>
    <tripinfo id="veh73" depart="37.00" departLane="-747995216#1_0" departPos="5.10" departSpeed="0.00" departDelay="0.50" arrival="209.00" arrivalLane="286375416#5_0" arrivalPos="81.70" arrivalSpeed="11.79" duration="172.00" routeLength="2192.37" waitingTime="0.00" waitingCount="0" stopTime="0.00" timeLoss="30.53" rerouteNo="0" devices="tripinfo_veh73" vType="car" speedFactor="0.91" vaporized=""/>
    <tripinfo id="veh125" depart="63.00" departLane="-1378248861_0" departPos="5.10" departSpeed="0.00" departDelay="0.50" arrival="209.00" arrivalLane="-960732367_0" arrivalPos="87.89" arrivalSpeed="14.05" duration="146.00" routeLength="2672.01" waitingTime="0.00" waitingCount="0" stopTime="0.00" timeLoss="38.47" rerouteNo="0" devices="tripinfo_veh125" vType="car" speedFactor="1.07" vaporized=""/>
    <tripinfo id="veh156" depart="78.00" departLane="-389944012#1_0" departPos="5.10" departSpeed="0.00" departDelay="0.00" arrival="209.00" arrivalLane="-536069245#0_0" arrivalPos="305.65" arrivalSpeed="12.90" duration="131.00" routeLength="1208.12" waitingTime="22.00" waitingCount="1" stopTime="0.00" timeLoss="42.09" rerouteNo="0" devices="tripinfo_veh156" vType="car" speedFactor="1.00" vaporized=""/>
    <tripinfo id="veh238" depart="119.00" departLane="389937952#0_0" departPos="5.10" departSpeed="0.00" departDelay="0.00" arrival="209.00" arrivalLane="754481683#3_0" arrivalPos="88.82" arrivalSpeed="17.82" duration="90.00" routeLength="1265.26" waitingTime="2.00" waitingCount="1" stopTime="0.00" timeLoss="38.01" rerouteNo="0" devices="tripinfo_veh238" vType="car" speedFactor="1.09" vaporized=""/>
    <tripinfo id="veh126" depart="63.00" departLane="-957099373_0" departPos="5.10" departSpeed="0.00" departDelay="0.00" arrival="210.00" arrivalLane="747995214#0_0" arrivalPos="349.92" arrivalSpeed="20.90" duration="147.00" routeLength="2789.38" waitingTime="0.00" waitingCount="0" stopTime="0.00" timeLoss="24.98" rerouteNo="0" devices="tripinfo_veh126" vType="car" speedFactor="0.94" vaporized=""/>
    <tripinfo id="veh285" depart="143.00" departLane="927745004_0" departPos="5.10" departSpeed="0.00" departDelay="0.50" arrival="210.00" arrivalLane="-389944259#0_0" arrivalPos="25.43" arrivalSpeed="11.66" duration="67.00" routeLength="672.24" waitingTime="0.00" waitingCount="0" stopTime="0.00" timeLoss="8.32" rerouteNo="0" devices="tripinfo_veh285" vType="car" speedFactor="0.85" vaporized=""/>
    <tripinfo id="veh259" depart="132.00" departLane="389934192#5_0" departPos="5.10" departSpeed="0.00" departDelay="2.50" arrival="213.00" arrivalLane="286376621#1_0" arrivalPos="78.45" arrivalSpeed="14.39" duration="81.00" routeLength="1081.05" waitingTime="0.00" waitingCount="0" stopTime="0.00" timeLoss="22.02" rerouteNo="0" devices="tripinfo_veh259" vType="car" speedFactor="1.11" vaporized=""/>
    <tripinfo id="veh85" depart="43.00" departLane="169359641#3_0" departPos="5.10" departSpeed="0.00" departDelay="0.50" arrival="214.00" arrivalLane="-888806189#2_0" arrivalPos="39.20" arrivalSpeed="12.27" duration="171.00" routeLength="1683.69" waitingTime="47.00" waitingCount="2" stopTime="0.00" timeLoss="96.96" rerouteNo="0" devices="tripinfo_veh85" vType="car" speedFactor="1.09" vaporized=""/>