<?xml version="1.0" encoding="UTF-8"?>

<!-- generated on 2026-03-17 23:33:25 by Eclipse SUMO sumo Version 1.24.0
<sumoConfiguration xmlns:xsi="http://www.w3.org/2001/XMLSchema-instance" xsi:noNamespaceSchemaLocation="http://sumo.dlr.de/xsd/sumoConfiguration.xsd">

    <input>
        <net-file value="map.net.xml"/>
        <route-files value="simulation.rou.xml"/>
    </input>

    <output>
        <tripinfo-output value="tripinfo_old.xml"/>
    </output>

    <report>
        <duration-log.statistics value="true"/>
    </report>

</sumoConfiguration>
-->

<tripinfos xmlns:xsi="http://www.w3.org/2001/XMLSchema-instance" xsi:noNamespaceSchemaLocation="http://sumo.dlr.de/xsd/tripinfo_file.xsd">
    <tripinfo id="veh4" depart="2.00" departLane="-389935994#6_0" departPos="5.10" departSpeed="0.00" departDelay="0.00" arrival="45.00" arrivalLane="957927680_0" arrivalPos="30.58" arrivalSpeed="14.27" duration="43.00" routeLength="618.37" waitingTime="0.00" waitingCount="0" stopTime="0.00" timeLoss="12.12" rerouteNo="0" devices="tripinfo_veh4" vType="car" speedFactor="1.08" vaporized=""/>
    <tripinfo id="veh45" depart="23.00" departLane="754481683#2_0" departPos="5.10" departSpeed="0.00" departDelay="0.50" arrival="76.00" arrivalLane="-957927495_0" arrivalPos="33.99" arrivalSpeed="11.66" duration="53.00" routeLength="604.61" waitingTime="0.00" waitingCount="0" stopTime="0.00" timeLoss="18.78" rerouteNo="0" devices="tripinfo_veh45" vType="car" speedFactor="0.90" vaporized=""/>
    <tripinfo id="veh35" depart="18.00" departLane="389934193#2_0" departPos="5.10" departSpeed="0.00" departDelay="0.50" arrival="82.00" arrivalLane="-960733242#1_0" arrivalPos="131.24" arrivalSpeed="14.78" duration="64.00" routeLength="859.22" waitingTime="0.00" waitingCount="0" stopTime="0.00" timeLoss="15.55" rerouteNo="0" devices="tripinfo_veh35" vType="car" speedFactor="1.15" vaporized=""/>
    <tripinfo id="veh36" depart="18.00" departLane="-389934193#0_0" departPos="5.10" departSpeed="0.00" departDelay="0.00" arrival="82.00" arrivalLane="536069245#1_0" arrivalPos="22.81" arrivalSpeed="11.75" duration="64.00" routeLength="645.05" waitingTime="0.00" waitingCount="0" stopTime="0.00" timeLoss="24.10" rerouteNo="0" devices="tripinfo_veh36" vType="car" speedFactor="1.01" vaporized=""/>
    <tripinfo id="veh16" depart="8.00" departLane="826933356#4_0" departPos="5.10" departSpeed="0.00" departDelay="0.00" arrival="89.00" arrivalLane="748016296_0" arrivalPos="283.06" arrivalSpeed="12.74" duration="81.00" routeLength="1015.76" waitingTime="1.00" waitingCount="1" stopTime="0.00" timeLoss="20.69" rerouteNo="0" devices="tripinfo_veh16" vType="car" speedFactor="0.93" vaporized=""/>
    <tripinfo id="veh26" depart="14.00" departLane="-747995214#2_0" departPos="5.10" departSpeed="0.00" departDelay="1.00" arrival="90.00" arrivalLane="-957927680_0" arrivalPos="36.10" arrivalSpeed="11.11" duration="76.00" routeLength="797.09" waitingTime="0.00" waitingCount="0" stopTime="0.00" timeLoss="20.96" rerouteNo="0" devices="tripinfo_veh26" vType="car" speedFactor="0.83" vaporized=""/>
    <tripinfo id="veh37" depart="19.00" departLane="-389933122#4_0" departPos="0.20" departSpeed="0.00" departDelay="0.50" arrival="93.00" arrivalLane="-535935820#4_0" arrivalPos="36.25" arrivalSpeed="11.91" duration="74.00" routeLength="1134.48" waitingTime="0.00" waitingCount="0" stopTime="0.00" timeLoss="18.11" rerouteNo="0" devices="tripinfo_veh37" vType="car" speedFactor="1.17" vaporized=""/>
    <tripinfo id="veh8" depart="4.00" departLane="-286376619_0" departPos="5.10" departSpeed="0.00" departDelay="0.00" arrival="94.00" arrivalLane="-960732608_0" arrivalPos="120.18" arrivalSpeed="11.67" duration="90.00" routeLength="955.86" waitingTime="0.00" waitingCount="0" stopTime="0.00" timeLoss="19.15" rerouteNo="0" devices="tripinfo_veh8" vType="car" speedFactor="0.89" vaporized=""/>
    <tripinfo id="veh43" depart="22.00" departLane="-1077915957_0" departPos="5.10" departSpeed="0.00" departDelay="0.50" arrival="94.00" arrivalLane="389944016#2_0" arrivalPos="169.17" arrivalSpeed="16.15" duration="72.00" routeLength="708.12" waitingTime="10.00" waitingCount="1" stopTime="0.00" timeLoss="26.33" rerouteNo="0" devices="tripinfo_veh43" vType="car" speedFactor="1.18" vaporized=""/>
    <tripinfo id="veh64" depart="32.00" departLane="747995210#1_0" departPos="5.10" departSpeed="0.00" departDelay="0.00" arrival="95.00" arrivalLane="965152757_0" arrivalPos="63.95" arrivalSpeed="19.00" duration="63.00" routeLength="809.31" waitingTime="0.00" waitingCount="0" stopTime="0.00" timeLoss="23.98" rerouteNo="0" devices="tripinfo_veh64" vType="car" speedFactor="1.02" vaporized=""/>
    <tripinfo id="veh34" depart="17.00" departLane="-754240703#3_0" departPos="5.10" departSpeed="0.00" departDelay="0.00" arrival="97.00" arrivalLane="-747995210#1_0" arrivalPos="19.73" arrivalSpeed="8.78" duration="80.00" routeLength="985.50" waitingTime="0.00" waitingCount="0" stopTime="0.00" timeLoss="26.96" rerouteNo="0" devices="tripinfo_veh34" vType="car" speedFactor="1.18" vaporized=""/>
    <tripinfo id="veh87" depart="44.00" departLane="1189302973_0" departPos="5.10" departSpeed="0.00" departDelay="0.50" arrival="100.00" arrivalLane="-389933122#5_0" arrivalPos="239.85" arrivalSpeed="27.45" duration="56.00" routeLength="688.90" waitingTime="0.00" waitingCount="0" stopTime="0.00" timeLoss="13.40" rerouteNo="0" devices="tripinfo_veh87" vType="car" speedFactor="1.00" vaporized=""/>
    <tripinfo id="veh93" depart="49.00" departLane="389934193#1_0" departPos="5.10" departSpeed="0.00" departDelay="2.50" arrival="112.00" arrivalLane="-389944434#0_0" arrivalPos="282.18" arrivalSpeed="14.27" duration="63.00" routeLength="754.08" waitingTime="0.00" waitingCount="0" stopTime="0.00" timeLoss="16.03" rerouteNo="0" devices="tripinfo_veh93" vType="car" speedFactor="1.04" vaporized=""/>
    <tripinfo id="veh151" depart="76.00" departLane="1378252912_0" departPos="5.10" departSpeed="0.00" departDelay="0.50" arrival="112.00" arrivalLane="535936518#0_0" arrivalPos="240.07" arrivalSpeed="12.28" duration="36.00" routeLength="405.02" waitingTime="0.00" waitingCount="0" stopTime="0.00" timeLoss="4.84" rerouteNo="0" devices="tripinfo_veh151" vType="car" speedFactor="0.94" vaporized=""/>
    <tripinfo id="veh183" depart="92.00" departLane="-389933122#2_0" departPos="5.10" departSpeed="0.00" departDelay="0.50" arrival="115.00" arrivalLane="-797563396#2_0" arrivalPos="78.51" arrivalSpeed="12.36" duration="23.00" routeLength="241.32" waitingTime="0.00" waitingCount="0" stopTime="0.00" timeLoss="8.98" rerouteNo="0" devices="tripinfo_veh183" vType="car" speedFactor="0.96" vaporized=""/>
    <tripinfo id="veh152" depart="77.00" departLane="-825130075#1_0" departPos="5.10" departSpeed="0.00" departDelay="1.00" arrival="118.00" arrivalLane="825130075#0_0" arrivalPos="190.27" arrivalSpeed="15.65" duration="41.00" routeLength="489.07" waitingTime="0.00" waitingCount="0" stopTime="0.00" timeLoss="8.81" rerouteNo="0" devices="tripinfo_veh152" vType="car" speedFactor="1.13" vaporized=""/>
    <tripinfo id="veh56" depart="28.00" departLane="-797563396#0_0" departPos="5.10" departSpeed="0.00" departDelay="0.00" arrival="121.00" arrivalLane="-754481683#1_0" arrivalPos="88.87" arrivalSpeed="18.95" duration="93.00" routeLength="1332.66" waitingTime="1.00" waitingCount="1" stopTime="0.00" timeLoss="18.82" rerouteNo="0" devices="tripinfo_veh56" vType="car" speedFactor="0.85" vaporized=""/>
    <tripinfo id="veh51" depart="26.00" departLane="169359641#1_0" departPos="5.10" departSpeed="0.00" departDelay="0.50" arrival="124.00" arrivalLane="927742960_0" arrivalPos="22.31" arrivalSpeed="12.34" duration="98.00" routeLength="1437.76" waitingTime="0.00" waitingCount="0" stopTime="0.00" timeLoss="21.83" rerouteNo="0" devices="tripinfo_veh51" vType="car" speedFactor="1.09" vaporized=""/>
    <tripinfo id="veh76" depart="40.00" departLane="-389933122#5_0" departPos="5.10" departSpeed="0.00" departDelay="2.00" arrival="134.00" arrivalLane="-747995217#1_0" arrivalPos="331.81" arrivalSpeed="13.25" duration="94.00" routeLength="1160.83" waitingTime="0.00" waitingCount="0" stopTime="0.00" timeLoss="18.13" rerouteNo="0" devices="tripinfo_veh76" vType="car" speedFactor="1.02" vaporized=""/>
    <tripinfo id="veh68" depart="34.00" departLane="678343424#0_0" departPos="5.10" departSpeed="0.00" departDelay="0.00" arrival="136.00" arrivalLane="738434647#1_0" arrivalPos="0.10" arrivalSpeed="27.40" duration="102.00" routeLength="1193.65" waitingTime="13.00" waitingCount="1" stopTime="0.00" timeLoss="33.53" rerouteNo="0" devices="tripinfo_veh68" vType="car" speedFactor="1.02" vaporized=""/>
    <tripinfo id="veh168" depart="84.00" departLane="1378252912_0" departPos="5.10" departSpeed="0.00" departDelay="0.00" arrival="136.00" arrivalLane="1378252900_0" arrivalPos="124.93" arrivalSpeed="15.18" duration="52.00" routeLength="650.87" waitingTime="0.00" waitingCount="0" stopTime="0.00" timeLoss="8.99" rerouteNo="0" devices="tripinfo_veh168" vType="car" speedFactor="1.14" vaporized=""/>
    <tripinfo id="veh10" depart="5.00" departLane="957927982_0" departPos="5.10" departSpeed="0.00" departDelay="0.00" arrival="137.00" arrivalLane="-747995214#0_0" arrivalPos="346.72" arrivalSpeed="18.19" duration="132.00" routeLength="1832.57" waitingTime="0.00" waitingCount="0" stopTime="0.00" timeLoss="20.51" rerouteNo="0" devices="tripinfo_veh10" vType="car" speedFactor="0.86" vaporized=""/>
    <tripinfo id="veh18" depart="9.00" departLane="389933122#3_0" departPos="5.10" departSpeed="0.00" departDelay="0.00" arrival="137.00" arrivalLane="-535936518#0_0" arrivalPos="245.20" arrivalSpeed="11.46" duration="128.00" routeLength="1387.29" waitingTime="0.00" waitingCount="0" stopTime="0.00" timeLoss="14.93" rerouteNo="0" devices="tripinfo_veh18" vType="car" speedFactor="0.88" vaporized=""/>
    <tripinfo id="veh66" depart="33.00" departLane="747995210#5_0" departPos="5.10" departSpeed="0.00" departDelay="0.00" arrival="139.00" arrivalLane="-678343424#0_0" arrivalPos="115.74" arrivalSpeed="14.38" duration="106.00" routeLength="1276.51" waitingTime="0.00" waitingCount="0" stopTime="0.00" timeLoss="31.04" rerouteNo="0" devices="tripinfo_veh66" vType="car" speedFactor="1.08" vaporized=""/>
    <tripinfo id="veh1" depart="1.00" departLane="-535935820#2_0" departPos="5.10" departSpeed="0.00" departDelay="0.50" arrival="140.00" arrivalLane="389944259#4_0" arrivalPos="188.49" arrivalSpeed="14.63" duration="139.00" routeLength="2399.11" waitingTime="0.00" waitingCount="0" stopTime="0.00" timeLoss="14.45" rerouteNo="0" devices="tripinfo_veh1" vType="car" speedFactor="1.06" vaporized=""/>
    <tripinfo id="veh71" depart="36.00" departLane="-1378252918#1_0" departPos="5.10" departSpeed="0.00" departDelay="0.50" arrival="141.00" arrivalLane="-1309998212#2_0" arrivalPos="129.89" arrivalSpeed="11.01" duration="105.00" routeLength="938.77" waitingTime="0.00" waitingCount="0" stopTime="0.00" timeLoss="22.90" rerouteNo="0" devices="tripinfo_veh71" vType="car" speedFactor="0.88" vaporized=""/>
    <tripinfo id="veh145" depart="73.00" departLane="-1378248861_0" departPos="5.10" departSpeed="0.00" departDelay="0.50" arrival="142.00" arrivalLane="798269714#0_0" arrivalPos="112.83" arrivalSpeed="13.50" duration="69.00" routeLength="1019.53" waitingTime="0.00" waitingCount="0" stopTime="0.00" timeLoss="17.11" rerouteNo="0" devices="tripinfo_veh145" vType="car" speedFactor="1.02" vaporized=""/>
    <tripinfo id="veh44" depart="22.00" departLane="747995215#0_0" departPos="5.10" departSpeed="0.00" departDelay="0.00" arrival="144.00" arrivalLane="-747995215#3_0" arrivalPos="202.58" arrivalSpeed="15.07" duration="122.00" routeLength="1667.36" waitingTime="0.00" waitingCount="0" stopTime="0.00" timeLoss="11.30" rerouteNo="0" devices="tripinfo_veh44" vType="car" speedFactor="1.10" vaporized=""/>
    <tripinfo id="veh157" depart="79.00" departLane="-968863701_0" departPos="0.20" departSpeed="0.00" departDelay="0.50" arrival="145.00" arrivalLane="-754481683#2_0" arrivalPos="140.53" arrivalSpeed="20.66" duration="66.00" routeLength="636.64" waitingTime="4.00" waitingCount="1" stopTime="0.00" timeLoss="23.34" rerouteNo="0" devices="tripinfo_veh157" vType="car" speedFactor="0.97" vaporized=""/>
    <tripinfo id="veh20" depart="10.00" departLane="-678343091_0" departPos="5.10" departSpeed="0.00" departDelay="0.00" arrival="152.00" arrivalLane="-957927495_0" arrivalPos="33.99" arrivalSpeed="10.04" duration="142.00" routeLength="1505.75" waitingTime="10.00" waitingCount="1" stopTime="0.00" timeLoss="38.44" rerouteNo="0" devices="tripinfo_veh20" vType="car" speedFactor="0.94" vaporized=""/>
    <tripinfo id="veh62" depart="31.00" departLane="-1145058117#0_0" departPos="5.10" departSpeed="0.00" departDelay="0.00" arrival="153.00" arrivalLane="-389944016#1_0" arrivalPos="441.65" arrivalSpeed="11.37" duration="122.00" routeLength="1405.82" waitingTime="0.00" waitingCount="0" stopTime="0.00" timeLoss="18.79" rerouteNo="0" devices="tripinfo_veh62" vType="car" speedFactor="0.90" vaporized=""/>
    <tripinfo id="veh47" depart="24.00" departLane="535935820#2_0" departPos="5.10" departSpeed="0.00" departDelay="0.50" arrival="154.00" arrivalLane="756206420_0" arrivalPos="33.65" arrivalSpeed="12.48" duration="130.00" routeLength="1686.76" waitingTime="20.00" waitingCount="1" stopTime="0.00" timeLoss="41.50" rerouteNo="0" devices="tripinfo_veh47" vType="car" speedFactor="0.96" vaporized=""/>
    <tripinfo id="veh52" depart="26.00" departLane="-536069245#0_0" departPos="5.10" departSpeed="0.00" departDelay="0.00" arrival="155.00" arrivalLane="536069031#0_0" arrivalPos="267.43" arrivalSpeed="13.04" duration="129.00" routeLength="1409.98" waitingTime="0.00" waitingCount="0" stopTime="0.00" timeLoss="29.69" rerouteNo="0" devices="tripinfo_veh52" vType="car" speedFactor="1.00" vaporized=""/>
    <tripinfo id="veh112" depart="56.00" departLane="389933122#8_0" departPos="5.10" departSpeed="0.00" departDelay="0.00" arrival="159.00" arrivalLane="-825130075#2_0" arrivalPos="171.60" arrivalSpeed="13.90" duration="103.00" routeLength="1181.32" waitingTime="9.00" waitingCount="1" stopTime="0.00" timeLoss="38.92" rerouteNo="0" devices="tripinfo_veh112" vType="car" speedFactor="1.01" vaporized=""/>
    <tripinfo id="veh46" depart="23.00" departLane="-1166376808_0" departPos="5.10" departSpeed="0.00" departDelay="0.00" arrival="161.00" arrivalLane="-535937546#2_0" arrivalPos="188.22" arrivalSpeed="14.16" duration="138.00" routeLength="1925.27" waitingTime="1.00" waitingCount="1" stopTime="0.00" timeLoss="28.91" rerouteNo="0" devices="tripinfo_veh46" vType="car" speedFactor="1.03" vaporized=""/>
    <tripinfo id="veh190" depart="95.00" departLane="-389933122#4_0" departPos="0.20" departSpeed="0.00" departDelay="0.00" arrival="161.00" arrivalLane="-148462086#4_0" arrivalPos="50.51" arrivalSpeed="16.52" duration="66.00" routeLength="1091.10" waitingTime="0.00" waitingCount="0" stopTime="0.00" timeLoss="15.68" rerouteNo="0" devices="tripinfo_veh190" vType="car" speedFactor="1.03" vaporized=""/>
    <tripinfo id="veh137" depart="69.00" departLane="-747995217#2_0" departPos="5.10" departSpeed="0.00" departDelay="0.50" arrival="164.00" arrivalLane="535937546#3_0" arrivalPos="19.51" arrivalSpeed="11.92" duration="95.00" routeLength="1155.91" waitingTime="0.00" waitingCount="0" stopTime="0.00" timeLoss="13.99" rerouteNo="0" devices="tripinfo_veh137" vType="car" speedFactor="1.07" vaporized=""/>
    <tripinfo id="veh57" depart="29.00" departLane="754481683#1_0" departPos="5.10" departSpeed="0.00" departDelay="0.50" arrival="165.00" arrivalLane="-1137585466#1_0" arrivalPos="148.76" arrivalSpeed="15.20" duration="136.00" routeLength="1209.52" waitingTime="32.00" waitingCount="2" stopTime="0.00" timeLoss="73.39" rerouteNo="0" devices="tripinfo_veh57" vType="car" speedFactor="1.17" vaporized=""/>
    <tripinfo id="veh123" depart="62.00" departLane="797563396#2_0" departPos="5.10" departSpeed="0.00" departDelay="0.50" arrival="165.00" arrivalLane="754481683#3_0" arrivalPos="88.82" arrivalSpeed="21.52" duration="103.00" routeLength="1866.78" waitingTime="0.00" waitingCount="0" stopTime="0.00" timeLoss="23.61" rerouteNo="0" devices="tripinfo_veh123" vType="car" speedFactor="1.00" vaporized=""/>
    <tripinfo id="veh84" depart="42.00" departLane="-797563396#2_0" departPos="5.10" departSpeed="0.00" departDelay="0.00" arrival="167.00" arrivalLane="927744411_0" arrivalPos="357.43" arrivalSpeed="13.39" duration="125.00" routeLength="2000.79" waitingTime="0.00" waitingCount="0" stopTime="0.00" timeLoss="16.02" rerouteNo="0" devices="tripinfo_veh84" vType="car" speedFactor="1.01" vaporized=""/>
    <tripinfo id="veh32" depart="16.00" departLane="-389944013#3_0" departPos="5.10" departSpeed="0.00" departDelay="0.00" arrival="168.00" arrivalLane="-1309998213_0" arrivalPos="23.67" arrivalSpeed="10.44" duration="152.00" routeLength="1954.48" waitingTime="0.00" waitingCount="0" stopTime="0.00" timeLoss="30.57" rerouteNo="0" devices="tripinfo_veh32" vType="car" speedFactor="1.13" vaporized=""/>
    <tripinfo id="veh120" depart="60.00" departLane="1378258303_0" departPos="5.10" departSpeed="0.00" departDelay="0.00" arrival="168.00" arrivalLane="825130075#2_0" arrivalPos="171.51" arrivalSpeed="14.91" duration="108.00" routeLength="1297.61" waitingTime="0.00" waitingCount="0" stopTime="0.00" timeLoss="19.64" rerouteNo="0" devices="tripinfo_veh120" vType="car" speedFactor="1.10" vaporized=""/>
    <tripinfo id="veh96" depart="48.00" departLane="-757509934#2_0" departPos="5.10" departSpeed="0.00" departDelay="0.00" arrival="170.00" arrivalLane="754481684#1_0" arrivalPos="234.98" arrivalSpeed="13.26" duration="122.00" routeLength="1606.16" waitingTime="0.00" waitingCount="0" stopTime="0.00" timeLoss="18.76" rerouteNo="0" devices="tripinfo_veh96" vType="car" speedFactor="1.02" vaporized=""/>
    <tripinfo id="veh154" depart="77.00" departLane="286376619_0" departPos="5.10" departSpeed="0.00" departDelay="0.00" arrival="175.00" arrivalLane="888806189#1_0" arrivalPos="280.86" arrivalSpeed="14.74" duration="98.00" routeLength="807.01" waitingTime="31.00" waitingCount="1" stopTime="0.00" timeLoss="49.43" rerouteNo="0" devices="tripinfo_veh154" vType="car" speedFactor="1.14" vaporized=""/>
    <tripinfo id="veh22" depart="11.00" departLane="-1175380689#1_0" departPos="5.10" departSpeed="0.00" departDelay="0.00" arrival="176.00" arrivalLane="-389944013#4_0" arrivalPos="695.31" arrivalSpeed="13.25" duration="165.00" routeLength="2267.15" waitingTime="3.00" waitingCount="1" stopTime="0.00" timeLoss="29.63" rerouteNo="0" devices="tripinfo_veh22" vType="car" speedFactor="1.02" vaporized=""/>
    <tripinfo id="veh13" depart="7.00" departLane="957927849_0" departPos="5.10" departSpeed="0.00" departDelay="0.50" arrival="183.00" arrivalLane="927742829#1_0" arrivalPos="94.81" arrivalSpeed="13.39" duration="176.00" routeLength="2328.17" waitingTime="0.00" waitingCount="0" stopTime="0.00" timeLoss="38.64" rerouteNo="0" devices="tripinfo_veh13" vType="car" speedFactor="1.05" vaporized=""/>
    <tripinfo id="veh106" depart="53.00" departLane="826933356#2_0" departPos="5.10" departSpeed="0.00" departDelay="0.00" arrival="185.00" arrivalLane="888806189#0_0" arrivalPos="179.39" arrivalSpeed="13.90" duration="132.00" routeLength="1634.99" waitingTime="0.00" waitingCount="0" stopTime="0.00" timeLoss="42.82" rerouteNo="0" devices="tripinfo_veh106" vType="car" speedFactor="1.06" vaporized=""/>
    <tripinfo id="veh174" depart="87.00" departLane="-389934192#3_0" departPos="5.10" departSpeed="0.00" departDelay="0.00" arrival="185.00" arrivalLane="-389934193#1_0" arrivalPos="145.51" arrivalSpeed="14.44" duration="98.00" routeLength="1080.68" waitingTime="0.00" waitingCount="0" stopTime="0.00" timeLoss="22.43" rerouteNo="0" devices="tripinfo_veh174" vType="car" speedFactor="0.91" vaporized=""/>
    <tripinfo id="veh7" depart="4.00" departLane="148462086#0_0" departPos="5.10" departSpeed="0.00" departDelay="0.50" arrival="188.00" arrivalLane="-286375718_0" arrivalPos="57.15" arrivalSpeed="13.78" duration="184.00" routeLength="2591.34" waitingTime="0.00" waitingCount="0" stopTime="0.00" timeLoss="37.22" rerouteNo="0" devices="tripinfo_veh7" vType="car" speedFactor="1.05" vaporized=""/>
    <tripinfo id="veh102" depart="51.00" departLane="389935994#3_0" departPos="5.10" departSpeed="0.00" departDelay="0.00" arrival="189.00" arrivalLane="957928613_0" arrivalPos="126.92" arrivalSpeed="12.98" duration="138.00" routeLength="2000.16" waitingTime="0.00" waitingCount="0" stopTime="0.00" timeLoss="30.23" rerouteNo="0" devices="tripinfo_veh102" vType="car" speedFactor="1.01" vaporized=""/>
    <tripinfo id="veh83" depart="42.00" departLane="754240703#1_0" departPos="5.10" departSpeed="0.00" departDelay="0.50" arrival="190.00" arrivalLane="535937546#2_0" arrivalPos="189.57" arrivalSpeed="13.27" duration="148.00" routeLength="1847.78" waitingTime="0.00" waitingCount="0" stopTime="0.00" timeLoss="37.78" rerouteNo="0" devices="tripinfo_veh83" vType="car" speedFactor="0.98" vaporized=""/>
    <tripinfo id="veh107" depart="54.00" departLane="754481683#0_0" departPos="5.10" departSpeed="0.00" departDelay="0.50" arrival="192.00" arrivalLane="389944013#2_0" arrivalPos="379.51" arrivalSpeed="13.26" duration="138.00" routeLength="1568.97" waitingTime="0.00" waitingCount="0" stopTime="0.00" timeLoss="30.97" rerouteNo="0" devices="tripinfo_veh107" vType="car" speedFactor="0.96" vaporized=""/>
    <tripinfo id="veh155" depart="78.00" departLane="-895435633_0" departPos="5.10" departSpeed="0.00" departDelay="0.50" arrival="192.00" arrivalLane="-754481682_0" arrivalPos="24.16" arrivalSpeed="19.17" duration="114.00" routeLength="1096.20" waitingTime="25.00" waitingCount="1" stopTime="0.00" timeLoss="54.83" rerouteNo="0" devices="tripinfo_veh155" vType="car" speedFactor="0.89" vaporized=""/>
    <tripinfo id="veh169" depart="85.00" departLane="-754806405#1_0" departPos="5.10" departSpeed="0.00" departDelay="0.50" arrival="192.00" arrivalLane="927754422_0" arrivalPos="72.26" arrivalSpeed="11.41" duration="107.00" routeLength="1289.57" waitingTime="0.00" waitingCount="0" stopTime="0.00" timeLoss="19.62" rerouteNo="0" devices="tripinfo_veh169" vType="car" speedFactor="0.88" vaporized=""/>
    <tripinfo id="veh197" depart="99.00" departLane="-389933122#11_0" departPos="1.58" departSpeed="0.00" departDelay="0.50" arrival="192.00" arrivalLane="-757509934#2_0" arrivalPos="6.24" arrivalSpeed="11.84" duration="93.00" routeLength="1273.47" waitingTime="15.00" waitingCount="1" stopTime="0.00" timeLoss="36.94" rerouteNo="0" devices="tripinfo_veh197" vType="car" speedFactor="0.97" vaporized=""/>
    <tripinfo id="veh309" depart="155.00" departLane="-389935995#1_0" departPos="5.10" departSpeed="0.00" departDelay="0.50" arrival="192.00" arrivalLane="-148462086#4_0" arrivalPos="50.51" arrivalSpeed="13.89" duration="37.00" routeLength="314.12" waitingTime="0.00" waitingCount="0" stopTime="0.00" timeLoss="15.59" rerouteNo="0" devices="tripinfo_veh309" vType="car" speedFactor="1.10" vaporized=""/>
    <tripinfo id="veh163" depart="83.00" departLane="1309998215#0_0" departPos="5.10" departSpeed="0.00" departDelay="1.50" arrival="199.00" arrivalLane="-389934193#2_0" arrivalPos="13.13" arrivalSpeed="7.55" duration="116.00" routeLength="938.26" waitingTime="37.00" waitingCount="1" stopTime="0.00" timeLoss="58.50" rerouteNo="0" devices="tripinfo_veh163" vType="car" speedFactor="1.06" vaporized=""/>
    <tripinfo id="veh70" depart="35.00" departLane="1206064607#3_0" departPos="5.10" departSpeed="0.00" departDelay="0.00" arrival="200.00" arrivalLane="-389934193#5_0" arrivalPos="134.44" arrivalSpeed="4.06" duration="165.00" routeLength="1516.74" waitingTime="41.00" waitingCount="2" stopTime="0.00" timeLoss="72.84" rerouteNo="0" devices="tripinfo_veh70" vType="car" speedFactor="0.94" vaporized=""/>
    <tripinfo id="veh366" depart="183.00" departLane="-389933122#4_0" departPos="0.20" departSpeed="0.00" departDelay="0.00" arrival="201.00" arrivalLane="389933122#5_0" arrivalPos="239.58" arrivalSpeed="26.63" duration="18.00" routeLength="257.22" waitingTime="0.00" waitingCount="0" stopTime="0.00" timeLoss="6.79" rerouteNo="0" devices="tripinfo_veh366" vType="car" speedFactor="0.97" vaporized=""/>
    <tripinfo id="veh72" depart="36.00" departLane="389934193#1_0" departPos="5.10" departSpeed="0.00" departDelay="0.00" arrival="202.00" arrivalLane="-678343424#0_0" arrivalPos="115.74" arrivalSpeed="11.99" duration="166.00" routeLength="2108.42" waitingTime="6.00" waitingCount="2" stopTime="0.00" timeLoss="38.90" rerouteNo="0" devices="tripinfo_veh72" vType="car" speedFactor="0.91" vaporized=""/>
    <tripinfo id="veh303" depart="155.00" departLane="148462086#0_0" departPos="5.10" departSpeed="0.00" departDelay="3.50" arrival="203.00" arrivalLane="-148462086#2_0" arrivalPos="265.52" arrivalSpeed="20.37" duration="48.00" routeLength="688.21" waitingTime="0.00" waitingCount="0" stopTime="0.00" timeLoss="14.77" rerouteNo="0" devices="tripinfo_veh303" vType="car" speedFactor="0.97" vaporized=""/>
    <tripinfo id="veh171" depart="86.00" departLane="-747995214#0_0" departPos="5.10" departSpeed="0.00" departDelay="0.50" arrival="204.00" arrivalLane="-738434647#1_0" arrivalPos="0.10" arrivalSpeed="24.88" duration="118.00" routeLength="2250.50" waitingTime="0.00" waitingCount="0" stopTime="0.00" timeLoss="29.89" rerouteNo="0" devices="tripinfo_veh171" vType="car" speedFactor="0.99" vaporized=""/>
    <tripinfo id="veh125" depart="63.00" departLane="-1378248861_0" departPos="5.10" departSpeed="0.00" departDelay="0.50" arrival="205.00" arrivalLane="-960732367_0" arrivalPos="87.89" arrivalSpeed="13.96" duration="142.00" routeLength="2672.01" waitingTime="0.00" waitingCount="0" stopTime="0.00" timeLoss="34.17" rerouteNo="0" devices="tripinfo_veh125" vType="car" speedFactor="1.07" vaporized=""/>
    <tripinfo id="veh73" depart="37.00" departLane="-747995216#1_0" departPos="5.10" departSpeed="0.00" departDelay="0.50" arrival="207.00" arrivalLane="286375416#5_0" arrivalPos="81.70" arrivalSpeed="11.48" duration="170.00" routeLength="2192.37" waitingTime="0.00" waitingCount="0" stopTime="0.00" timeLoss="30.34" rerouteNo="0" devices="tripinfo_veh73" vType="car" speedFactor="0.91" vaporized=""/>
    <tripinfo id="veh203" depart="103.00" departLane="-389935994#2_0" departPos="5.10" departSpeed="0.00" departDelay="1.50" arrival="207.00" arrivalLane="957928613_0" arrivalPos="126.92" arrivalSpeed="13.17" duration="104.00" routeLength="1446.09" waitingTime="0.00" waitingCount="0" stopTime="0.00" timeLoss="21.45" rerouteNo="0" devices="tripinfo_veh203" vType="car" speedFactor="1.00" vaporized=""/>
    <tripinfo id="veh244" depart="122.00" departLane="965152757_0" departPos="5.10" departSpeed="0.00" departDelay="0.00" arrival="207.00" arrivalLane="-754240703#3_0" arrivalPos="264.60" arrivalSpeed="24.83" duration="85.00" routeLength="1337.85" waitingTime="0.00" waitingCount="0" stopTime="0.00" timeLoss="28.83" rerouteNo="0" devices="tripinfo_veh244" vType="car" speedFactor="0.91" vaporized=""/>
    <tripinfo id="veh210" depart="105.00" departLane="-1166376405_0" departPos="5.10" departSpeed="0.00" departDelay="0.00" arrival="208.00" arrivalLane="389933122#10_0" arrivalPos="81.55" arrivalSpeed="23.83" duration="103.00" routeLength="1326.22" waitingTime="13.00" waitingCount="1" stopTime="0.00" timeLoss="30.60" rerouteNo="0" devices="tripinfo_veh210" vType="car" speedFactor="0.87" vaporized=""/>
    <tripinfo id="veh238" depart="119.00" departLane="389937952#0_0" departPos="5.10" departSpeed="0.00" departDelay="0.00" arrival="208.00" arrivalLane="754481683#3_0" arrivalPos="88.82" arrivalSpeed="18.29" duration="89.00" routeLength="1267.49" waitingTime="0.00" waitingCount="0" stopTime="0.00" timeLoss="36.42" rerouteNo="0" devices="tripinfo_veh238" vType="car" speedFactor="1.09" vaporized=""/>
    <tripinfo id="veh285" depart="143.00" departLane="927745004_0" departPos="5.10" departSpeed="0.00" departDelay="0.50" arrival="211.00" arrivalLane="-389944259#0_0" arrivalPos="25.43" arrivalSpeed="10.79" duration="68.00" routeLength="672.24" waitingTime="0.00" waitingCount="0" stopTime="0.00" timeLoss="8.93" rerouteNo="0" devices="tripinfo_veh285" vType="car" speedFactor="0.85" vaporized=""/>
    <tripinfo id="veh23" depart="12.00" departLane="-957099727_0" departPos="5.10" departSpeed="0.00" departDelay="0.50" arrival="216.00" arrivalLane="1309998214_0" arrivalPos="183.48" arrivalSpeed="12.95" duration="204.00" routeLength="1676.51" waitingTime="56.00" waitingCount="2" stopTime="0.00" timeLoss="84.99" rerouteNo="0" devices="tripinfo_veh23" vType="car" speedFactor="1.01" vaporized=""/>
    <tripinfo id="veh103" depart="52.00" departLane="1378252902_0" departPos="5.10" departSpeed="0.00" departDelay="0.50" arrival="216.00" arrivalLane="-536069245#1_0" arrivalPos="23.86" arrivalSpeed="11.15" duration="164.00" routeLength="2290.37" waitingTime="0.00" waitingCount="0" stopTime="0.00" timeLoss="32.92" rerouteNo="0" devices="tripinfo_veh103" vType="car" speedFactor="0.91" vaporized=""/>
    <tripinfo id="veh207" depart="107.00" departLane="-389933122#6_0" departPos="5.10" departSpeed="0.00" departDelay="3.50" arrival="217.00" arrivalLane="-535935820#5_0" arrivalPos="97.47" arrivalSpeed="14.37" duration="110.00" routeLength="1636.17" waitingTime="0.00" waitingCount="0" stopTime="0.00" timeLoss="25.20" rerouteNo="0" devices="tripinfo_veh207" vType="car" speedFactor="1.06" vaporized=""/>