<?xml version="1.0" encoding="UTF-8"?>

<!-- generated on 2026-03-16 00:42:49 by Eclipse SUMO sumo Version 1.24.0
<sumoConfiguration xmlns:xsi="http://www.w3.org/2001/XMLSchema-instance" xsi:noNamespaceSchemaLocation="http://sumo.dlr.de/xsd/sumoConfiguration.xsd">

    <input>
        <net-file value="map.net.xml"/>
        <route-files value="simulation.rou.xml"/>
    </input>

    <output>
        <tripinfo-output value="tripinfo_old.xml"/>
    </output>

    <report>
        <duration-log.statistics value="true"/>
    </report>

</sumoConfiguration>
-->

<tripinfos xmlns:xsi="http://www.w3.org/2001/XMLSchema-instance" xsi:noNamespaceSchemaLocation="http://sumo.dlr.de/xsd/tripinfo_file.xsd">
    <tripinfo id="veh25" depart="13.00" departLane="744238099#2_0" departPos="5.10" departSpeed="0.00" departDelay="0.50" arrival="42.00" arrivalLane="1364681849#3_0" arrivalPos="129.53" arrivalSpeed="26.76" duration="29.00" routeLength="367.65" waitingTime="0.00" waitingCount="0" stopTime="0.00" timeLoss="12.79" rerouteNo="0" devices="tripinfo_veh25" vType="car" speedFactor="0.97" vaporized=""/>
    <tripinfo id="veh17" depart="9.00" departLane="746528092#2_0" departPos="5.10" departSpeed="0.00" departDelay="0.50" arrival="45.00" arrivalLane="-749702421_0" arrivalPos="74.25" arrivalSpeed="13.33" duration="36.00" routeLength="321.43" waitingTime="0.00" waitingCount="0" stopTime="0.00" timeLoss="10.38" rerouteNo="0" devices="tripinfo_veh17" vType="car" speedFactor="0.99" vaporized=""/>
    <tripinfo id="veh55" depart="28.00" departLane="1364681851#1_0" departPos="0.20" departSpeed="0.00" departDelay="0.50" arrival="65.00" arrivalLane="-159463136#2_0" arrivalPos="41.74" arrivalSpeed="17.89" duration="37.00" routeLength="496.14" waitingTime="0.00" waitingCount="0" stopTime="0.00" timeLoss="10.57" rerouteNo="0" devices="tripinfo_veh55" vType="car" speedFactor="0.85" vaporized=""/>
    <tripinfo id="veh43" depart="27.00" departLane="548373963#6_0" departPos="5.10" departSpeed="0.00" departDelay="5.50" arrival="68.00" arrivalLane="-749999920#1_0" arrivalPos="50.72" arrivalSpeed="14.78" duration="41.00" routeLength="384.92" waitingTime="0.00" waitingCount="0" stopTime="0.00" timeLoss="17.91" rerouteNo="0" devices="tripinfo_veh43" vType="car" speedFactor="1.18" vaporized=""/>
    <tripinfo id="veh109" depart="55.00" departLane="-895432952_0" departPos="5.10" departSpeed="0.00" departDelay="0.50" arrival="70.00" arrivalLane="548373950#4_1" arrivalPos="92.26" arrivalSpeed="14.35" duration="15.00" routeLength="124.89" waitingTime="0.00" waitingCount="0" stopTime="0.00" timeLoss="5.56" rerouteNo="0" devices="tripinfo_veh109" vType="car" speedFactor="1.10" vaporized=""/>
    <tripinfo id="veh15" depart="8.00" departLane="1364681134#0_0" departPos="5.10" departSpeed="0.00" departDelay="0.50" arrival="80.00" arrivalLane="749959413#2_0" arrivalPos="98.41" arrivalSpeed="13.78" duration="72.00" routeLength="762.39" waitingTime="0.00" waitingCount="0" stopTime="0.00" timeLoss="20.54" rerouteNo="0" devices="tripinfo_veh15" vType="car" speedFactor="1.05" vaporized=""/>
    <tripinfo id="veh99" depart="50.00" departLane="-802000252#1_0" departPos="5.10" departSpeed="0.00" departDelay="0.50" arrival="80.00" arrivalLane="-450752220#2_0" arrivalPos="113.16" arrivalSpeed="13.79" duration="30.00" routeLength="328.69" waitingTime="0.00" waitingCount="0" stopTime="0.00" timeLoss="6.61" rerouteNo="0" devices="tripinfo_veh99" vType="car" speedFactor="1.02" vaporized=""/>
    <tripinfo id="veh75" depart="40.00" departLane="1364681851#2_0" departPos="5.10" departSpeed="0.00" departDelay="2.50" arrival="86.00" arrivalLane="-749702421_0" arrivalPos="74.25" arrivalSpeed="11.50" duration="46.00" routeLength="390.61" waitingTime="0.00" waitingCount="0" stopTime="0.00" timeLoss="15.66" rerouteNo="0" devices="tripinfo_veh75" vType="car" speedFactor="0.91" vaporized=""/>
    <tripinfo id="veh31" depart="16.00" departLane="1364681846#1_0" departPos="1.39" departSpeed="0.00" departDelay="0.50" arrival="87.00" arrivalLane="-805971869#3_0" arrivalPos="184.74" arrivalSpeed="4.69" duration="71.00" routeLength="595.30" waitingTime="1.00" waitingCount="1" stopTime="0.00" timeLoss="15.25" rerouteNo="0" devices="tripinfo_veh31" vType="car" speedFactor="0.92" vaporized=""/>
    <tripinfo id="veh22" depart="11.00" departLane="895432952_0" departPos="5.10" departSpeed="0.00" departDelay="0.00" arrival="89.00" arrivalLane="1210908131#2_0" arrivalPos="0.20" arrivalSpeed="3.84" duration="78.00" routeLength="1139.82" waitingTime="0.00" waitingCount="0" stopTime="0.00" timeLoss="25.07" rerouteNo="0" devices="tripinfo_veh22" vType="car" speedFactor="1.16" vaporized=""/>
    <tripinfo id="veh19" depart="10.00" departLane="802794952_0" departPos="5.10" departSpeed="0.00" departDelay="0.50" arrival="93.00" arrivalLane="-1262877731#2_0" arrivalPos="41.23" arrivalSpeed="11.77" duration="83.00" routeLength="758.25" waitingTime="0.00" waitingCount="0" stopTime="0.00" timeLoss="17.35" rerouteNo="0" devices="tripinfo_veh19" vType="car" speedFactor="0.88" vaporized=""/>
    <tripinfo id="veh127" depart="65.00" departLane="-802000252#1_0" departPos="5.10" departSpeed="0.00" departDelay="1.50" arrival="98.00" arrivalLane="-450752220#2_0" arrivalPos="113.16" arrivalSpeed="11.59" duration="33.00" routeLength="328.69" waitingTime="0.00" waitingCount="0" stopTime="0.00" timeLoss="6.63" rerouteNo="0" devices="tripinfo_veh127" vType="car" speedFactor="0.92" vaporized=""/>
    <tripinfo id="veh158" depart="79.00" departLane="1193733759#1_0" departPos="0.20" departSpeed="0.00" departDelay="0.00" arrival="103.00" arrivalLane="-1305162883_0" arrivalPos="70.98" arrivalSpeed="9.77" duration="24.00" routeLength="161.41" waitingTime="0.00" waitingCount="0" stopTime="0.00" timeLoss="5.61" rerouteNo="0" devices="tripinfo_veh158" vType="car" speedFactor="0.73" vaporized=""/>
    <tripinfo id="veh124" depart="62.00" departLane="-548373963#6_0" departPos="5.10" departSpeed="0.00" departDelay="0.00" arrival="105.00" arrivalLane="1364681848#3_1" arrivalPos="44.03" arrivalSpeed="15.03" duration="43.00" routeLength="360.05" waitingTime="0.00" waitingCount="0" stopTime="0.00" timeLoss="11.88" rerouteNo="0" devices="tripinfo_veh124" vType="car" speedFactor="1.10" vaporized=""/>
    <tripinfo id="veh57" depart="29.00" departLane="745188103_0" departPos="5.10" departSpeed="0.00" departDelay="0.50" arrival="111.00" arrivalLane="-802794955_0" arrivalPos="58.86" arrivalSpeed="15.30" duration="82.00" routeLength="637.02" waitingTime="2.00" waitingCount="1" stopTime="0.00" timeLoss="28.71" rerouteNo="0" devices="tripinfo_veh57" vType="car" speedFactor="1.17" vaporized=""/>
    <tripinfo id="veh172" depart="87.00" departLane="1193733759#0_0" departPos="5.10" departSpeed="0.00" departDelay="1.00" arrival="113.00" arrivalLane="-1305162882_0" arrivalPos="77.92" arrivalSpeed="13.85" duration="26.00" routeLength="237.67" waitingTime="0.00" waitingCount="0" stopTime="0.00" timeLoss="7.88" rerouteNo="0" devices="tripinfo_veh172" vType="car" speedFactor="1.06" vaporized=""/>
    <tripinfo id="veh116" depart="58.00" departLane="1210908131#2_0" departPos="0.20" departSpeed="0.00" departDelay="0.00" arrival="116.00" arrivalLane="548373950#2_0" arrivalPos="12.18" arrivalSpeed="7.43" duration="58.00" routeLength="248.43" waitingTime="22.00" waitingCount="1" stopTime="0.00" timeLoss="46.43" rerouteNo="0" devices="tripinfo_veh116" vType="car" speedFactor="0.89" vaporized=""/>
    <tripinfo id="veh32" depart="16.00" departLane="-895443202_0" departPos="5.10" departSpeed="0.00" departDelay="0.00" arrival="118.00" arrivalLane="-805333889_0" arrivalPos="149.80" arrivalSpeed="12.55" duration="102.00" routeLength="823.66" waitingTime="0.00" waitingCount="0" stopTime="0.00" timeLoss="22.10" rerouteNo="0" devices="tripinfo_veh32" vType="car" speedFactor="0.95" vaporized=""/>
    <tripinfo id="veh35" depart="18.00" departLane="-1193733759#0_0" departPos="5.10" departSpeed="0.00" departDelay="0.50" arrival="121.00" arrivalLane="-649120019#2_0" arrivalPos="21.17" arrivalSpeed="9.55" duration="103.00" routeLength="579.98" waitingTime="39.00" waitingCount="2" stopTime="0.00" timeLoss="63.43" rerouteNo="0" devices="tripinfo_veh35" vType="car" speedFactor="0.93" vaporized=""/>
    <tripinfo id="veh207" depart="104.00" departLane="-1262877732_0" departPos="5.10" departSpeed="0.00" departDelay="0.50" arrival="123.00" arrivalLane="1262877732_0" arrivalPos="40.95" arrivalSpeed="14.87" duration="19.00" routeLength="164.13" waitingTime="0.00" waitingCount="0" stopTime="0.00" timeLoss="6.90" rerouteNo="0" devices="tripinfo_veh207" vType="car" speedFactor="1.08" vaporized=""/>
    <tripinfo id="veh185" depart="93.00" departLane="-749959413#3_0" departPos="5.10" departSpeed="0.00" departDelay="0.50" arrival="128.00" arrivalLane="-749959413#0_0" arrivalPos="77.69" arrivalSpeed="12.71" duration="35.00" routeLength="384.98" waitingTime="0.00" waitingCount="0" stopTime="0.00" timeLoss="6.01" rerouteNo="0" devices="tripinfo_veh185" vType="car" speedFactor="1.00" vaporized=""/>
    <tripinfo id="veh146" depart="73.00" departLane="-802794946#1_0" departPos="5.10" departSpeed="0.00" departDelay="0.00" arrival="129.00" arrivalLane="802794959_0" arrivalPos="173.40" arrivalSpeed="14.38" duration="56.00" routeLength="503.01" waitingTime="0.00" waitingCount="0" stopTime="0.00" timeLoss="17.32" rerouteNo="0" devices="tripinfo_veh146" vType="car" speedFactor="1.04" vaporized=""/>
    <tripinfo id="veh16" depart="8.00" departLane="548373963#1_0" departPos="5.10" departSpeed="0.00" departDelay="0.00" arrival="130.00" arrivalLane="901028067#1_1" arrivalPos="208.73" arrivalSpeed="29.42" duration="122.00" routeLength="1475.53" waitingTime="3.00" waitingCount="1" stopTime="0.00" timeLoss="46.02" rerouteNo="0" devices="tripinfo_veh16" vType="car" speedFactor="1.12" vaporized=""/>
    <tripinfo id="veh97" depart="50.00" departLane="805333889_0" departPos="5.10" departSpeed="0.00" departDelay="1.50" arrival="131.00" arrivalLane="800108283_0" arrivalPos="49.00" arrivalSpeed="14.12" duration="81.00" routeLength="525.52" waitingTime="0.00" waitingCount="0" stopTime="0.00" timeLoss="18.20" rerouteNo="0" devices="tripinfo_veh97" vType="car" speedFactor="1.02" vaporized=""/>
    <tripinfo id="veh141" depart="71.00" departLane="-744238100_0" departPos="5.10" departSpeed="0.00" departDelay="0.50" arrival="134.00" arrivalLane="-744238099#5_0" arrivalPos="0.20" arrivalSpeed="4.01" duration="63.00" routeLength="465.08" waitingTime="11.00" waitingCount="2" stopTime="0.00" timeLoss="42.80" rerouteNo="0" devices="tripinfo_veh141" vType="car" speedFactor="1.12" vaporized=""/>
    <tripinfo id="veh156" depart="78.00" departLane="1364681849#1_0" departPos="5.10" departSpeed="0.00" departDelay="0.00" arrival="135.00" arrivalLane="744238099#1_0" arrivalPos="46.85" arrivalSpeed="19.70" duration="57.00" routeLength="636.80" waitingTime="3.00" waitingCount="2" stopTime="0.00" timeLoss="23.42" rerouteNo="0" devices="tripinfo_veh156" vType="car" speedFactor="0.94" vaporized=""/>
    <tripinfo id="veh220" depart="113.00" departLane="-1305162881#0_0" departPos="5.10" departSpeed="0.00" departDelay="3.00" arrival="135.00" arrivalLane="-1193733759#2_0" arrivalPos="14.76" arrivalSpeed="11.89" duration="22.00" routeLength="151.19" waitingTime="0.00" waitingCount="0" stopTime="0.00" timeLoss="9.26" rerouteNo="0" devices="tripinfo_veh220" vType="car" speedFactor="1.06" vaporized=""/>
    <tripinfo id="veh103" depart="52.00" departLane="-1210908131#1_0" departPos="5.10" departSpeed="0.00" departDelay="0.50" arrival="137.00" arrivalLane="750006607_0" arrivalPos="96.82" arrivalSpeed="14.62" duration="85.00" routeLength="450.36" waitingTime="28.00" waitingCount="2" stopTime="0.00" timeLoss="61.38" rerouteNo="0" devices="tripinfo_veh103" vType="car" speedFactor="1.09" vaporized=""/>
    <tripinfo id="veh107" depart="54.00" departLane="-1305162885_0" departPos="5.10" departSpeed="0.00" departDelay="0.50" arrival="137.00" arrivalLane="1262877732_0" arrivalPos="40.95" arrivalSpeed="11.33" duration="83.00" routeLength="846.67" waitingTime="0.00" waitingCount="0" stopTime="0.00" timeLoss="12.76" rerouteNo="0" devices="tripinfo_veh107" vType="car" speedFactor="0.91" vaporized=""/>
    <tripinfo id="veh63" depart="32.00" departLane="-450752220#2_0" departPos="5.10" departSpeed="0.00" departDelay="0.50" arrival="141.00" arrivalLane="744528054#1_0" arrivalPos="369.28" arrivalSpeed="15.54" duration="109.00" routeLength="1269.80" waitingTime="0.00" waitingCount="0" stopTime="0.00" timeLoss="25.25" rerouteNo="0" devices="tripinfo_veh63" vType="car" speedFactor="1.14" vaporized=""/>
    <tripinfo id="veh90" depart="45.00" departLane="746528092#1_0" departPos="5.10" departSpeed="0.00" departDelay="0.00" arrival="141.00" arrivalLane="-1210908131#4_0" arrivalPos="7.55" arrivalSpeed="8.03" duration="96.00" routeLength="899.26" waitingTime="23.00" waitingCount="2" stopTime="0.00" timeLoss="48.75" rerouteNo="0" devices="tripinfo_veh90" vType="car" speedFactor="1.02" vaporized=""/>
    <tripinfo id="veh176" depart="88.00" departLane="-746528092#3_0" departPos="5.10" departSpeed="0.00" departDelay="0.00" arrival="142.00" arrivalLane="-802794950_0" arrivalPos="56.66" arrivalSpeed="12.27" duration="54.00" routeLength="428.55" waitingTime="3.00" waitingCount="1" stopTime="0.00" timeLoss="18.10" rerouteNo="0" devices="tripinfo_veh176" vType="car" speedFactor="0.91" vaporized=""/>
    <tripinfo id="veh218" depart="109.00" departLane="450752220#2_0" departPos="5.10" departSpeed="0.00" departDelay="0.00" arrival="154.00" arrivalLane="1262877731#1_0" arrivalPos="28.52" arrivalSpeed="13.82" duration="45.00" routeLength="415.55" waitingTime="0.00" waitingCount="0" stopTime="0.00" timeLoss="14.23" rerouteNo="0" devices="tripinfo_veh218" vType="car" speedFactor="1.03" vaporized=""/>
    <tripinfo id="veh253" depart="127.00" departLane="744528054#0_0" departPos="5.10" departSpeed="0.00" departDelay="0.50" arrival="157.00" arrivalLane="801397525_0" arrivalPos="64.03" arrivalSpeed="15.04" duration="30.00" routeLength="350.20" waitingTime="0.00" waitingCount="0" stopTime="0.00" timeLoss="6.17" rerouteNo="0" devices="tripinfo_veh253" vType="car" speedFactor="1.11" vaporized=""/>
    <tripinfo id="veh201" depart="101.00" departLane="-802794946#0_0" departPos="5.10" departSpeed="0.00" departDelay="0.50" arrival="162.00" arrivalLane="-1195176494_0" arrivalPos="16.05" arrivalSpeed="14.13" duration="61.00" routeLength="549.07" waitingTime="2.00" waitingCount="1" stopTime="0.00" timeLoss="22.52" rerouteNo="0" devices="tripinfo_veh201" vType="car" speedFactor="1.10" vaporized=""/>
    <tripinfo id="veh238" depart="119.00" departLane="802794948#0_0" departPos="5.10" departSpeed="0.00" departDelay="0.00" arrival="168.00" arrivalLane="746528092#0_0" arrivalPos="26.59" arrivalSpeed="13.21" duration="49.00" routeLength="437.98" waitingTime="0.00" waitingCount="0" stopTime="0.00" timeLoss="18.30" rerouteNo="0" devices="tripinfo_veh238" vType="car" speedFactor="1.10" vaporized=""/>
    <tripinfo id="veh88" depart="44.00" departLane="802000252#5_0" departPos="5.10" departSpeed="0.00" departDelay="0.00" arrival="169.00" arrivalLane="-744796384_0" arrivalPos="199.26" arrivalSpeed="5.50" duration="125.00" routeLength="1261.56" waitingTime="28.00" waitingCount="1" stopTime="0.00" timeLoss="59.59" rerouteNo="0" devices="tripinfo_veh88" vType="car" speedFactor="1.03" vaporized=""/>
    <tripinfo id="veh247" depart="124.00" departLane="-1305162882_0" departPos="5.10" departSpeed="0.00" departDelay="0.50" arrival="172.00" arrivalLane="-1305162883_0" arrivalPos="70.98" arrivalSpeed="10.64" duration="48.00" routeLength="347.58" waitingTime="0.00" waitingCount="0" stopTime="0.00" timeLoss="14.09" rerouteNo="0" devices="tripinfo_veh247" vType="car" speedFactor="0.84" vaporized=""/>
    <tripinfo id="veh161" depart="82.00" departLane="801397525_0" departPos="5.10" departSpeed="0.00" departDelay="1.50" arrival="181.00" arrivalLane="-744238099#3_0" arrivalPos="10.40" arrivalSpeed="18.36" duration="99.00" routeLength="410.85" waitingTime="45.00" waitingCount="3" stopTime="0.00" timeLoss="76.06" rerouteNo="0" devices="tripinfo_veh161" vType="car" speedFactor="0.89" vaporized=""/>
    <tripinfo id="veh48" depart="24.00" departLane="-1193733759#3_0" departPos="5.10" departSpeed="0.00" departDelay="0.00" arrival="184.00" arrivalLane="1211218982_0" arrivalPos="32.67" arrivalSpeed="13.40" duration="160.00" routeLength="1404.13" waitingTime="30.00" waitingCount="1" stopTime="0.00" timeLoss="70.26" rerouteNo="0" devices="tripinfo_veh48" vType="car" speedFactor="1.09" vaporized=""/>
    <tripinfo id="veh317" depart="159.00" departLane="649120019#3_0" departPos="5.10" departSpeed="0.00" departDelay="0.50" arrival="189.00" arrivalLane="-649120019#1_0" arrivalPos="69.62" arrivalSpeed="13.66" duration="30.00" routeLength="269.11" waitingTime="0.00" waitingCount="0" stopTime="0.00" timeLoss="9.85" rerouteNo="0" devices="tripinfo_veh317" vType="car" speedFactor="1.02" vaporized=""/>
    <tripinfo id="veh4" depart="2.00" departLane="-744238099#4_0" departPos="5.10" departSpeed="0.00" departDelay="0.00" arrival="191.00" arrivalLane="1364681849#7_1" arrivalPos="936.95" arrivalSpeed="29.69" duration="189.00" routeLength="2151.87" waitingTime="65.00" waitingCount="4" stopTime="0.00" timeLoss="109.86" rerouteNo="0" devices="tripinfo_veh4" vType="car" speedFactor="1.08" vaporized=""/>
    <tripinfo id="veh177" depart="89.00" departLane="1047765852#1_0" departPos="5.10" departSpeed="0.00" departDelay="0.50" arrival="191.00" arrivalLane="1305162881#0_0" arrivalPos="14.25" arrivalSpeed="11.65" duration="102.00" routeLength="1148.67" waitingTime="10.00" waitingCount="1" stopTime="0.00" timeLoss="49.96" rerouteNo="0" devices="tripinfo_veh177" vType="car" speedFactor="1.14" vaporized=""/>
    <tripinfo id="veh299" depart="150.00" departLane="1211187479_0" departPos="5.10" departSpeed="0.00" departDelay="0.50" arrival="192.00" arrivalLane="749959413#2_0" arrivalPos="98.41" arrivalSpeed="11.96" duration="42.00" routeLength="363.12" waitingTime="2.00" waitingCount="1" stopTime="0.00" timeLoss="11.67" rerouteNo="0" devices="tripinfo_veh299" vType="car" speedFactor="0.92" vaporized=""/>
    <tripinfo id="veh342" depart="171.00" departLane="-1262877732_0" departPos="5.10" departSpeed="0.00" departDelay="0.00" arrival="194.00" arrivalLane="802794948#0_0" arrivalPos="30.29" arrivalSpeed="11.64" duration="23.00" routeLength="210.89" waitingTime="0.00" waitingCount="0" stopTime="0.00" timeLoss="7.58" rerouteNo="0" devices="tripinfo_veh342" vType="car" speedFactor="1.06" vaporized=""/>
    <tripinfo id="veh85" depart="43.00" departLane="548373950#3_0" departPos="5.10" departSpeed="0.00" departDelay="0.50" arrival="196.00" arrivalLane="744796384_0" arrivalPos="198.26" arrivalSpeed="13.42" duration="153.00" routeLength="1353.69" waitingTime="32.00" waitingCount="6" stopTime="0.00" timeLoss="75.16" rerouteNo="0" devices="tripinfo_veh85" vType="car" speedFactor="0.98" vaporized=""/>
    <tripinfo id="veh117" depart="115.00" departLane="-1266707781_0" departPos="0.20" departSpeed="0.00" departDelay="56.50" arrival="198.00" arrivalLane="-1210908131#0_0" arrivalPos="535.78" arrivalSpeed="29.20" duration="83.00" routeLength="799.44" waitingTime="36.00" waitingCount="1" stopTime="0.00" timeLoss="55.26" rerouteNo="0" devices="tripinfo_veh117" vType="car" speedFactor="1.07" vaporized=""/>
    <tripinfo id="veh350" depart="175.00" departLane="-805971869#1_0" departPos="5.10" departSpeed="0.00" departDelay="0.00" arrival="198.00" arrivalLane="1366734423_0" arrivalPos="64.79" arrivalSpeed="16.75" duration="23.00" routeLength="164.22" waitingTime="0.00" waitingCount="0" stopTime="0.00" timeLoss="4.75" rerouteNo="0" devices="tripinfo_veh350" vType="car" speedFactor="1.21" vaporized=""/>
    <tripinfo id="veh267" depart="135.00" departLane="802794959_0" departPos="5.10" departSpeed="0.00" departDelay="1.50" arrival="199.00" arrivalLane="450752220#0_0" arrivalPos="115.24" arrivalSpeed="15.30" duration="64.00" routeLength="619.81" waitingTime="0.00" waitingCount="0" stopTime="0.00" timeLoss="22.05" rerouteNo="0" devices="tripinfo_veh267" vType="car" speedFactor="1.13" vaporized=""/>
    <tripinfo id="veh23" depart="12.00" departLane="450752220#1_0" departPos="5.10" departSpeed="0.00" departDelay="0.50" arrival="201.00" arrivalLane="-1210908131#0_0" arrivalPos="535.78" arrivalSpeed="28.24" duration="189.00" routeLength="1875.29" waitingTime="61.00" waitingCount="2" stopTime="0.00" timeLoss="99.24" rerouteNo="0" devices="tripinfo_veh23" vType="car" speedFactor="1.02" vaporized=""/>
    <tripinfo id="veh160" depart="80.00" departLane="-1305162881#0_0" departPos="5.10" departSpeed="0.00" departDelay="0.00" arrival="201.00" arrivalLane="744238099#3_0" arrivalPos="9.55" arrivalSpeed="14.07" duration="121.00" routeLength="1396.97" waitingTime="2.00" waitingCount="1" stopTime="0.00" timeLoss="53.85" rerouteNo="0" devices="tripinfo_veh160" vType="car" speedFactor="1.14" vaporized=""/>
    <tripinfo id="veh70" depart="35.00" departLane="-744238099#4_0" departPos="5.10" departSpeed="0.00" departDelay="0.00" arrival="206.00" arrivalLane="-1193733759#0_0" arrivalPos="120.64" arrivalSpeed="14.07" duration="171.00" routeLength="1662.54" waitingTime="23.00" waitingCount="3" stopTime="0.00" timeLoss="92.44" rerouteNo="0" devices="tripinfo_veh70" vType="car" speedFactor="1.02" vaporized=""/>
    <tripinfo id="veh379" depart="190.00" departLane="159463136#1_0" departPos="5.10" departSpeed="0.00" departDelay="0.50" arrival="208.00" arrivalLane="744238099#0_0" arrivalPos="86.63" arrivalSpeed="24.24" duration="18.00" routeLength="284.51" waitingTime="0.00" waitingCount="0" stopTime="0.00" timeLoss="5.51" rerouteNo="0" devices="tripinfo_veh379" vType="car" speedFactor="1.11" vaporized=""/>
    <tripinfo id="veh345" depart="173.00" departLane="-749959413#2_0" departPos="5.10" departSpeed="0.00" departDelay="0.50" arrival="210.00" arrivalLane="-744240848#0_0" arrivalPos="24.74" arrivalSpeed="11.55" duration="37.00" routeLength="340.67" waitingTime="0.00" waitingCount="0" stopTime="0.00" timeLoss="12.19" rerouteNo="0" devices="tripinfo_veh345" vType="car" speedFactor="1.05" vaporized=""/>
    <tripinfo id="veh306" depart="153.00" departLane="1305162884_0" departPos="5.10" departSpeed="0.00" departDelay="0.00" arrival="222.00" arrivalLane="744796384_0" arrivalPos="198.26" arrivalSpeed="11.15" duration="69.00" routeLength="491.72" waitingTime="7.00" waitingCount="1" stopTime="0.00" timeLoss="23.58" rerouteNo="0" devices="tripinfo_veh306" vType="car" speedFactor="0.85" vaporized=""/>
    <tripinfo id="veh403" depart="202.00" departLane="-744240848#0_0" departPos="5.10" departSpeed="0.00" departDelay="0.50" arrival="228.00" arrivalLane="1305162886_0" arrivalPos="35.57" arrivalSpeed="12.24" duration="26.00" routeLength="204.55" waitingTime="0.00" waitingCount="0" stopTime="0.00" timeLoss="7.20" rerouteNo="0" devices="tripinfo_veh403" vType="car" speedFactor="0.90" vaporized=""/>
    <tripinfo id="veh318" depart="159.00" departLane="-1193733759#1_0" departPos="0.20" departSpeed="0.00" departDelay="0.00" arrival="231.00" arrivalLane="-1210908131#0_0" arrivalPos="535.78" arrivalSpeed="20.20" duration="72.00" routeLength="707.23" waitingTime="17.00" waitingCount="1" stopTime="0.00" timeLoss="29.72" rerouteNo="0" devices="tripinfo_veh318" vType="car" speedFactor="0.76" vaporized=""/>
    <tripinfo id="veh322" depart="161.00" departLane="1210908131#0_0" departPos="5.10" departSpeed="0.00" departDelay="0.00" arrival="233.00" arrivalLane="895432952_0" arrivalPos="26.09" arrivalSpeed="12.39" duration="72.00" routeLength="938.16" waitingTime="0.00" waitingCount="0" stopTime="0.00" timeLoss="34.85" rerouteNo="0" devices="tripinfo_veh322" vType="car" speedFactor="1.10" vaporized=""/>
    <tripinfo id="veh321" depart="162.00" departLane="649120019#3_0" departPos="5.10" departSpeed="0.00" departDelay="1.50" arrival="244.00" arrivalLane="-649120019#0_0" arrivalPos="52.41" arrivalSpeed="5.75" duration="82.00" routeLength="335.76" waitingTime="27.00" waitingCount="2" stopTime="0.00" timeLoss="53.30" rerouteNo="0" devices="tripinfo_veh321" vType="car" speedFactor="0.89" vaporized=""/>
    <tripinfo id="veh402" depart="201.00" departLane="1047765852#0_0" departPos="5.10" departSpeed="0.00" departDelay="0.00" arrival="246.00" arrivalLane="1177215276_0" arrivalPos="18.14" arrivalSpeed="9.82" duration="45.00" routeLength="713.03" waitingTime="0.00" waitingCount="0" stopTime="0.00" timeLoss="15.54" rerouteNo="0" devices="tripinfo_veh402" vType="car" speedFactor="1.20" vaporized=""/>
    <tripinfo id="veh433" depart="217.00" departLane="744528054#0_0" departPos="5.10" departSpeed="0.00" departDelay="0.50" arrival="251.00" arrivalLane="750356550_0" arrivalPos="76.59" arrivalSpeed="15.07" duration="34.00" routeLength="352.37" waitingTime="0.00" waitingCount="0" stopTime="0.00" timeLoss="10.13" rerouteNo="0" devices="tripinfo_veh433" vType="car" speedFactor="1.12" vaporized=""/>
    <tripinfo id="veh471" depart="236.00" departLane="-649120019#2_0" departPos="5.10" departSpeed="0.00" departDelay="0.50" arrival="251.00" arrivalLane="1211177868_0" arrivalPos="40.48" arrivalSpeed="15.56" duration="15.00" routeLength="96.97" waitingTime="0.00" waitingCount="0" stopTime="0.00" timeLoss="7.62" rerouteNo="0" devices="tripinfo_veh471" vType="car" speedFactor="1.32" vaporized=""/>
    <tripinfo id="veh407" depart="204.00" departLane="1195176490_0" departPos="5.10" departSpeed="0.00" departDelay="0.50" arrival="253.00" arrivalLane="802794946#0_0" arrivalPos="153.60" arrivalSpeed="13.57" duration="49.00" routeLength="410.69" waitingTime="4.00" waitingCount="1" stopTime="0.00" timeLoss="17.16" rerouteNo="0" devices="tripinfo_veh407" vType="car" speedFactor="1.00" vaporized=""/>
    <tripinfo id="veh78" depart="39.00" departLane="745527904#0_0" departPos="5.10" departSpeed="0.00" departDelay="0.00" arrival="266.00" arrivalLane="800530318_0" arrivalPos="612.15" arrivalSpeed="13.30" duration="227.00" routeLength="2244.29" waitingTime="35.00" waitingCount="1" stopTime="0.00" timeLoss="64.99" rerouteNo="0" devices="tripinfo_veh78" vType="car" speedFactor="1.02" vaporized=""/>
    <tripinfo id="veh143" depart="72.00" departLane="-750006607_0" departPos="5.10" departSpeed="0.00" departDelay="0.50" arrival="268.00" arrivalLane="-1305162882_0" arrivalPos="77.92" arrivalSpeed="14.22" duration="196.00" routeLength="1592.69" waitingTime="65.00" waitingCount="2" stopTime="0.00" timeLoss="104.12" rerouteNo="0" devices="tripinfo_veh143" vType="car" speedFactor="1.03" vaporized=""/>
    <tripinfo id="veh3" depart="2.00" departLane="1364681846#0_0" departPos="0.20" departSpeed="0.00" departDelay="0.50" arrival="271.00" arrivalLane="-1266707781_0" arrivalPos="0.20" arrivalSpeed="3.57" duration="269.00" routeLength="641.40" waitingTime="222.00" waitingCount="4" stopTime="0.00" timeLoss="242.47" rerouteNo="0" devices="tripinfo_veh3" vType="car" speedFactor="1.01" vaporized=""/>
    <tripinfo id="veh96" depart="48.00" departLane="548373992#1_0" departPos="5.10" departSpeed="0.00" departDelay="0.00" arrival="271.00" arrivalLane="1364681849#0_1" arrivalPos="72.86" arrivalSpeed="26.88" duration="223.00" routeLength="3012.50" waitingTime="0.00" waitingCount="0" stopTime="0.00" timeLoss="23.94" rerouteNo="0" devices="tripinfo_veh96" vType="car" speedFactor="1.01" vaporized=""/>
    <tripinfo id="veh536" depart="268.00" departLane="-1262877732_0" departPos="5.10" departSpeed="0.00" departDelay="0.00" arrival="283.00" arrivalLane="-1262877731#0_0" arrivalPos="26.11" arrivalSpeed="11.35" duration="15.00" routeLength="160.77" waitingTime="0.00" waitingCount="0" stopTime="0.00" timeLoss="4.02" rerouteNo="0" devices="tripinfo_veh536" vType="car" speedFactor="1.06" vaporized=""/>
    <tripinfo id="veh520" depart="264.00" departLane="1210908131#1_0" departPos="5.10" departSpeed="0.00" departDelay="4.00" arrival="287.00" arrivalLane="1305162883_0" arrivalPos="72.36" arrivalSpeed="13.87" duration="23.00" routeLength="225.39" waitingTime="0.00" waitingCount="0" stopTime="0.00" timeLoss="5.57" rerouteNo="0" devices="tripinfo_veh520" vType="car" speedFactor="1.02" vaporized=""/>
    <tripinfo id="veh189" depart="95.00" departLane="-649120019#3_0" departPos="5.10" departSpeed="0.00" departDelay="0.50" arrival="288.00" arrivalLane="-1305162884_0" arrivalPos="73.29" arrivalSpeed="14.09" duration="193.00" routeLength="1726.84" waitingTime="44.00" waitingCount="3" stopTime="0.00" timeLoss="96.21" rerouteNo="0" devices="tripinfo_veh189" vType="car" speedFactor="1.09" vaporized=""/>
    <tripinfo id="veh356" depart="178.00" departLane="-749702421_0" departPos="5.10" departSpeed="0.00" departDelay="0.00" arrival="293.00" arrivalLane="-1193733759#3_0" arrivalPos="51.22" arrivalSpeed="15.57" duration="115.00" routeLength="1230.46" waitingTime="7.00" waitingCount="2" stopTime="0.00" timeLoss="56.00" rerouteNo="0" devices="tripinfo_veh356" vType="car" speedFactor="1.13" vaporized=""/>
    <tripinfo id="veh329" depart="175.00" departLane="-744238099#5_0" departPos="0.20" departSpeed="0.00" departDelay="10.50" arrival="331.00" arrivalLane="-1193733759#0_0" arrivalPos="120.64" arrivalSpeed="5.68" duration="156.00" routeLength="964.34" waitingTime="69.00" waitingCount="3" stopTime="0.00" timeLoss="109.09" rerouteNo="0" devices="tripinfo_veh329" vType="car" speedFactor="1.05" vaporized=""/>