<?xml version="1.0" encoding="UTF-8"?>

<!-- generated on 2026-03-16 00:43:31 by Eclipse SUMO sumo Version 1.24.0
<sumoConfiguration xmlns:xsi="http://www.w3.org/2001/XMLSchema-instance" xsi:noNamespaceSchemaLocation="http://sumo.dlr.de/xsd/sumoConfiguration.xsd">

    <input>
        <net-file value="best_map.net.xml"/>
        <route-files value="simulation_optimized.rou.xml"/>
    </input>

    <output>
        <tripinfo-output value="tripinfo_new.xml"/>
    </output>

    <report>
        <duration-log.statistics value="true"/>
    </report>

</sumoConfiguration>
-->

<tripinfos xmlns:xsi="http://www.w3.org/2001/XMLSchema-instance" xsi:noNamespaceSchemaLocation="http://sumo.dlr.de/xsd/tripinfo_file.xsd">
    <tripinfo id="veh25" depart="13.00" departLane="744238099#2_0" departPos="5.10" departSpeed="0.00" departDelay="0.50" arrival="41.00" arrivalLane="1364681849#3_0" arrivalPos="129.53" arrivalSpeed="26.92" duration="28.00" routeLength="367.64" waitingTime="0.00" waitingCount="0" stopTime="0.00" timeLoss="12.52" rerouteNo="0" devices="tripinfo_veh25" vType="car" speedFactor="0.97" vaporized=""/>
    <tripinfo id="veh17" depart="9.00" departLane="746528092#2_0" departPos="5.10" departSpeed="0.00" departDelay="0.50" arrival="46.00" arrivalLane="-749702421_0" arrivalPos="74.25" arrivalSpeed="13.15" duration="37.00" routeLength="321.42" waitingTime="0.00" waitingCount="0" stopTime="0.00" timeLoss="11.15" rerouteNo="0" devices="tripinfo_veh17" vType="car" speedFactor="0.99" vaporized=""/>
    <tripinfo id="veh55" depart="28.00" departLane="1364681851#1_0" departPos="0.20" departSpeed="0.00" departDelay="0.50" arrival="64.00" arrivalLane="-159463136#2_0" arrivalPos="41.74" arrivalSpeed="18.32" duration="36.00" routeLength="496.13" waitingTime="0.00" waitingCount="0" stopTime="0.00" timeLoss="10.19" rerouteNo="0" devices="tripinfo_veh55" vType="car" speedFactor="0.85" vaporized=""/>
    <tripinfo id="veh109" depart="55.00" departLane="-895432952_0" departPos="5.10" departSpeed="0.00" departDelay="0.50" arrival="69.00" arrivalLane="548373950#4_1" arrivalPos="92.26" arrivalSpeed="15.19" duration="14.00" routeLength="124.89" waitingTime="0.00" waitingCount="0" stopTime="0.00" timeLoss="5.37" rerouteNo="0" devices="tripinfo_veh109" vType="car" speedFactor="1.10" vaporized=""/>
    <tripinfo id="veh15" depart="8.00" departLane="1364681134#0_0" departPos="5.10" departSpeed="0.00" departDelay="0.50" arrival="79.00" arrivalLane="749959413#2_0" arrivalPos="98.41" arrivalSpeed="13.71" duration="71.00" routeLength="762.36" waitingTime="0.00" waitingCount="0" stopTime="0.00" timeLoss="20.68" rerouteNo="0" devices="tripinfo_veh15" vType="car" speedFactor="1.05" vaporized=""/>
    <tripinfo id="veh43" depart="36.00" departLane="548373963#6_0" departPos="5.10" departSpeed="0.00" departDelay="14.50" arrival="80.00" arrivalLane="-749999920#1_0" arrivalPos="50.72" arrivalSpeed="14.27" duration="44.00" routeLength="393.10" waitingTime="0.00" waitingCount="0" stopTime="0.00" timeLoss="20.60" rerouteNo="0" devices="tripinfo_veh43" vType="car" speedFactor="1.18" vaporized=""/>
    <tripinfo id="veh99" depart="50.00" departLane="-802000252#1_0" departPos="5.10" departSpeed="0.00" departDelay="0.50" arrival="81.00" arrivalLane="-450752220#2_0" arrivalPos="113.16" arrivalSpeed="13.47" duration="31.00" routeLength="328.68" waitingTime="0.00" waitingCount="0" stopTime="0.00" timeLoss="7.00" rerouteNo="0" devices="tripinfo_veh99" vType="car" speedFactor="1.02" vaporized=""/>
    <tripinfo id="veh31" depart="16.00" departLane="1364681846#1_0" departPos="1.39" departSpeed="0.00" departDelay="0.50" arrival="86.00" arrivalLane="-805971869#3_0" arrivalPos="184.75" arrivalSpeed="4.88" duration="70.00" routeLength="596.73" waitingTime="1.00" waitingCount="1" stopTime="0.00" timeLoss="14.57" rerouteNo="0" devices="tripinfo_veh31" vType="car" speedFactor="0.92" vaporized=""/>
    <tripinfo id="veh75" depart="40.00" departLane="1364681851#2_0" departPos="5.10" departSpeed="0.00" departDelay="2.50" arrival="86.00" arrivalLane="-749702421_0" arrivalPos="74.25" arrivalSpeed="12.68" duration="46.00" routeLength="390.60" waitingTime="0.00" waitingCount="0" stopTime="0.00" timeLoss="15.76" rerouteNo="0" devices="tripinfo_veh75" vType="car" speedFactor="0.91" vaporized=""/>
    <tripinfo id="veh22" depart="11.00" departLane="895432952_0" departPos="5.10" departSpeed="0.00" departDelay="0.00" arrival="90.00" arrivalLane="1210908131#2_0" arrivalPos="0.20" arrivalSpeed="3.32" duration="79.00" routeLength="1138.21" waitingTime="0.00" waitingCount="0" stopTime="0.00" timeLoss="25.95" rerouteNo="0" devices="tripinfo_veh22" vType="car" speedFactor="1.16" vaporized=""/>
    <tripinfo id="veh19" depart="10.00" departLane="802794952_0" departPos="5.10" departSpeed="0.00" departDelay="0.50" arrival="93.00" arrivalLane="-1262877731#2_0" arrivalPos="41.22" arrivalSpeed="12.10" duration="83.00" routeLength="750.99" waitingTime="0.00" waitingCount="0" stopTime="0.00" timeLoss="17.05" rerouteNo="0" devices="tripinfo_veh19" vType="car" speedFactor="0.88" vaporized=""/>
    <tripinfo id="veh73" depart="37.00" departLane="1364681851#2_0" departPos="5.10" departSpeed="0.00" departDelay="0.50" arrival="93.00" arrivalLane="1364681850#1_0" arrivalPos="0.20" arrivalSpeed="17.75" duration="56.00" routeLength="304.76" waitingTime="20.00" waitingCount="2" stopTime="0.00" timeLoss="37.01" rerouteNo="0" devices="tripinfo_veh73" vType="car" speedFactor="0.88" vaporized=""/>
    <tripinfo id="veh0" depart="0.00" departLane="1210908131#3_0" departPos="5.10" departSpeed="0.00" departDelay="0.00" arrival="95.00" arrivalLane="-749999920#0_0" arrivalPos="48.04" arrivalSpeed="13.84" duration="95.00" routeLength="1156.12" waitingTime="0.00" waitingCount="0" stopTime="0.00" timeLoss="26.44" rerouteNo="0" devices="tripinfo_veh0" vType="car" speedFactor="1.06" vaporized=""/>
    <tripinfo id="veh127" depart="64.00" departLane="-802000252#1_0" departPos="5.10" departSpeed="0.00" departDelay="0.50" arrival="99.00" arrivalLane="-450752220#2_0" arrivalPos="113.16" arrivalSpeed="12.22" duration="35.00" routeLength="328.68" waitingTime="0.00" waitingCount="0" stopTime="0.00" timeLoss="8.00" rerouteNo="0" devices="tripinfo_veh127" vType="car" speedFactor="0.92" vaporized=""/>
    <tripinfo id="veh20" depart="10.00" departLane="-1305162882_0" departPos="5.10" departSpeed="0.00" departDelay="0.00" arrival="100.00" arrivalLane="1364681850#1_0" arrivalPos="0.20" arrivalSpeed="16.31" duration="90.00" routeLength="1029.68" waitingTime="0.00" waitingCount="0" stopTime="0.00" timeLoss="19.91" rerouteNo="0" devices="tripinfo_veh20" vType="car" speedFactor="0.94" vaporized=""/>
    <tripinfo id="veh158" depart="79.00" departLane="1193733759#1_0" departPos="0.20" departSpeed="0.00" departDelay="0.00" arrival="103.00" arrivalLane="-1305162883_0" arrivalPos="67.71" arrivalSpeed="9.42" duration="24.00" routeLength="157.79" waitingTime="0.00" waitingCount="0" stopTime="0.00" timeLoss="5.49" rerouteNo="0" devices="tripinfo_veh158" vType="car" speedFactor="0.73" vaporized=""/>
    <tripinfo id="veh41" depart="21.00" departLane="-450752220#3_0" departPos="5.10" departSpeed="0.00" departDelay="0.50" arrival="104.00" arrivalLane="-548373963#5_0" arrivalPos="71.40" arrivalSpeed="18.32" duration="83.00" routeLength="909.00" waitingTime="0.00" waitingCount="0" stopTime="0.00" timeLoss="24.27" rerouteNo="0" devices="tripinfo_veh41" vType="car" speedFactor="1.02" vaporized=""/>
    <tripinfo id="veh124" depart="62.00" departLane="-548373963#6_0" departPos="5.10" departSpeed="0.00" departDelay="0.00" arrival="105.00" arrivalLane="1364681848#3_1" arrivalPos="44.03" arrivalSpeed="14.87" duration="43.00" routeLength="361.86" waitingTime="0.00" waitingCount="0" stopTime="0.00" timeLoss="12.35" rerouteNo="0" devices="tripinfo_veh124" vType="car" speedFactor="1.10" vaporized=""/>
    <tripinfo id="veh57" depart="29.00" departLane="745188103_0" departPos="5.10" departSpeed="0.00" departDelay="0.50" arrival="111.00" arrivalLane="-802794955_0" arrivalPos="58.87" arrivalSpeed="15.61" duration="82.00" routeLength="635.87" waitingTime="5.00" waitingCount="2" stopTime="0.00" timeLoss="28.80" rerouteNo="0" devices="tripinfo_veh57" vType="car" speedFactor="1.17" vaporized=""/>
    <tripinfo id="veh172" depart="86.00" departLane="1193733759#0_0" departPos="5.10" departSpeed="0.00" departDelay="0.00" arrival="112.00" arrivalLane="-1305162882_0" arrivalPos="77.93" arrivalSpeed="14.28" duration="26.00" routeLength="238.12" waitingTime="0.00" waitingCount="0" stopTime="0.00" timeLoss="8.74" rerouteNo="0" devices="tripinfo_veh172" vType="car" speedFactor="1.06" vaporized=""/>
    <tripinfo id="veh116" depart="59.00" departLane="1210908131#2_0" departPos="0.20" departSpeed="0.00" departDelay="1.00" arrival="116.00" arrivalLane="548373950#2_0" arrivalPos="12.18" arrivalSpeed="7.61" duration="57.00" routeLength="246.83" waitingTime="21.00" waitingCount="1" stopTime="0.00" timeLoss="45.46" rerouteNo="0" devices="tripinfo_veh116" vType="car" speedFactor="0.89" vaporized=""/>
    <tripinfo id="veh32" depart="16.00" departLane="-895443202_0" departPos="5.10" departSpeed="0.00" departDelay="0.00" arrival="118.00" arrivalLane="-805333889_0" arrivalPos="143.33" arrivalSpeed="12.61" duration="102.00" routeLength="824.65" waitingTime="0.00" waitingCount="0" stopTime="0.00" timeLoss="21.81" rerouteNo="0" devices="tripinfo_veh32" vType="car" speedFactor="0.95" vaporized=""/>
    <tripinfo id="veh35" depart="18.00" departLane="-1193733759#0_0" departPos="5.10" departSpeed="0.00" departDelay="0.50" arrival="121.00" arrivalLane="-649120019#2_0" arrivalPos="17.96" arrivalSpeed="8.87" duration="103.00" routeLength="574.83" waitingTime="39.00" waitingCount="2" stopTime="0.00" timeLoss="65.03" rerouteNo="0" devices="tripinfo_veh35" vType="car" speedFactor="0.93" vaporized=""/>
    <tripinfo id="veh161" depart="81.00" departLane="801397525_0" departPos="5.10" departSpeed="0.00" departDelay="0.50" arrival="121.00" arrivalLane="-744238099#3_0" arrivalPos="10.39" arrivalSpeed="18.72" duration="40.00" routeLength="410.83" waitingTime="1.00" waitingCount="1" stopTime="0.00" timeLoss="17.96" rerouteNo="0" devices="tripinfo_veh161" vType="car" speedFactor="0.89" vaporized=""/>
    <tripinfo id="veh207" depart="104.00" departLane="-1262877732_0" departPos="5.10" departSpeed="0.00" departDelay="0.50" arrival="124.00" arrivalLane="1262877732_0" arrivalPos="40.95" arrivalSpeed="14.43" duration="20.00" routeLength="164.11" waitingTime="0.00" waitingCount="0" stopTime="0.00" timeLoss="6.92" rerouteNo="0" devices="tripinfo_veh207" vType="car" speedFactor="1.08" vaporized=""/>
    <tripinfo id="veh185" depart="93.00" departLane="-749959413#3_0" departPos="5.10" departSpeed="0.00" departDelay="0.50" arrival="128.00" arrivalLane="-749959413#0_0" arrivalPos="77.70" arrivalSpeed="13.53" duration="35.00" routeLength="384.98" waitingTime="0.00" waitingCount="0" stopTime="0.00" timeLoss="5.76" rerouteNo="0" devices="tripinfo_veh185" vType="car" speedFactor="1.00" vaporized=""/>
    <tripinfo id="veh146" depart="73.00" departLane="-802794946#1_0" departPos="5.10" departSpeed="0.00" departDelay="0.00" arrival="130.00" arrivalLane="802794959_0" arrivalPos="173.40" arrivalSpeed="14.05" duration="57.00" routeLength="503.00" waitingTime="0.00" waitingCount="0" stopTime="0.00" timeLoss="17.49" rerouteNo="0" devices="tripinfo_veh146" vType="car" speedFactor="1.04" vaporized=""/>
    <tripinfo id="veh97" depart="51.00" departLane="805333889_0" departPos="5.10" departSpeed="0.00" departDelay="2.50" arrival="132.00" arrivalLane="800108283_0" arrivalPos="49.00" arrivalSpeed="13.03" duration="81.00" routeLength="514.34" waitingTime="0.00" waitingCount="0" stopTime="0.00" timeLoss="18.94" rerouteNo="0" devices="tripinfo_veh97" vType="car" speedFactor="1.02" vaporized=""/>
    <tripinfo id="veh156" depart="80.00" departLane="1364681849#1_0" departPos="5.10" departSpeed="0.00" departDelay="2.00" arrival="132.00" arrivalLane="744238099#1_0" arrivalPos="46.84" arrivalSpeed="19.97" duration="52.00" routeLength="636.79" waitingTime="1.00" waitingCount="1" stopTime="0.00" timeLoss="18.98" rerouteNo="0" devices="tripinfo_veh156" vType="car" speedFactor="0.94" vaporized=""/>
    <tripinfo id="veh220" depart="110.00" departLane="-1305162881#0_0" departPos="5.10" departSpeed="0.00" departDelay="0.00" arrival="132.00" arrivalLane="-1193733759#2_1" arrivalPos="14.71" arrivalSpeed="10.87" duration="22.00" routeLength="151.14" waitingTime="0.00" waitingCount="0" stopTime="0.00" timeLoss="8.67" rerouteNo="0" devices="tripinfo_veh220" vType="car" speedFactor="1.06" vaporized=""/>
    <tripinfo id="veh103" depart="52.00" departLane="-1210908131#1_0" departPos="5.10" departSpeed="0.00" departDelay="0.50" arrival="136.00" arrivalLane="750006607_0" arrivalPos="96.82" arrivalSpeed="14.05" duration="84.00" routeLength="450.36" waitingTime="27.00" waitingCount="3" stopTime="0.00" timeLoss="60.11" rerouteNo="0" devices="tripinfo_veh103" vType="car" speedFactor="1.09" vaporized=""/>
    <tripinfo id="veh107" depart="54.00" departLane="-1305162885_0" departPos="5.10" departSpeed="0.00" departDelay="0.50" arrival="137.00" arrivalLane="1262877732_0" arrivalPos="40.95" arrivalSpeed="11.59" duration="83.00" routeLength="846.62" waitingTime="0.00" waitingCount="0" stopTime="0.00" timeLoss="13.35" rerouteNo="0" devices="tripinfo_veh107" vType="car" speedFactor="0.91" vaporized=""/>
    <tripinfo id="veh63" depart="34.00" departLane="-450752220#2_0" departPos="5.10" departSpeed="0.00" departDelay="2.50" arrival="141.00" arrivalLane="744528054#1_0" arrivalPos="369.29" arrivalSpeed="15.62" duration="107.00" routeLength="1269.79" waitingTime="0.00" waitingCount="0" stopTime="0.00" timeLoss="22.78" rerouteNo="0" devices="tripinfo_veh63" vType="car" speedFactor="1.14" vaporized=""/>
    <tripinfo id="veh176" depart="88.00" departLane="-746528092#3_0" departPos="5.10" departSpeed="0.00" departDelay="0.00" arrival="142.00" arrivalLane="-802794950_0" arrivalPos="56.65" arrivalSpeed="11.96" duration="54.00" routeLength="428.49" waitingTime="5.00" waitingCount="1" stopTime="0.00" timeLoss="18.67" rerouteNo="0" devices="tripinfo_veh176" vType="car" speedFactor="0.91" vaporized=""/>
    <tripinfo id="veh90" depart="45.00" departLane="746528092#1_0" departPos="5.10" departSpeed="0.00" departDelay="0.00" arrival="144.00" arrivalLane="-1210908131#4_0" arrivalPos="7.56" arrivalSpeed="8.56" duration="99.00" routeLength="899.24" waitingTime="28.00" waitingCount="1" stopTime="0.00" timeLoss="51.47" rerouteNo="0" devices="tripinfo_veh90" vType="car" speedFactor="1.02" vaporized=""/>
    <tripinfo id="veh16" depart="8.00" departLane="548373963#1_0" departPos="5.10" departSpeed="0.00" departDelay="0.00" arrival="147.00" arrivalLane="901028067#1_1" arrivalPos="208.72" arrivalSpeed="30.23" duration="139.00" routeLength="1469.29" waitingTime="22.00" waitingCount="1" stopTime="0.00" timeLoss="62.71" rerouteNo="0" devices="tripinfo_veh16" vType="car" speedFactor="1.12" vaporized=""/>
    <tripinfo id="veh218" depart="109.00" departLane="450752220#2_0" departPos="5.10" departSpeed="0.00" departDelay="0.00" arrival="154.00" arrivalLane="1262877731#1_0" arrivalPos="28.52" arrivalSpeed="13.20" duration="45.00" routeLength="415.54" waitingTime="0.00" waitingCount="0" stopTime="0.00" timeLoss="14.46" rerouteNo="0" devices="tripinfo_veh218" vType="car" speedFactor="1.03" vaporized=""/>
    <tripinfo id="veh253" depart="127.00" departLane="744528054#0_0" departPos="5.10" departSpeed="0.00" departDelay="0.50" arrival="157.00" arrivalLane="801397525_0" arrivalPos="64.02" arrivalSpeed="14.62" duration="30.00" routeLength="350.18" waitingTime="0.00" waitingCount="0" stopTime="0.00" timeLoss="6.08" rerouteNo="0" devices="tripinfo_veh253" vType="car" speedFactor="1.11" vaporized=""/>
    <tripinfo id="veh201" depart="101.00" departLane="-802794946#0_0" departPos="5.10" departSpeed="0.00" departDelay="0.50" arrival="162.00" arrivalLane="-1195176494_0" arrivalPos="16.05" arrivalSpeed="14.60" duration="61.00" routeLength="549.06" waitingTime="1.00" waitingCount="1" stopTime="0.00" timeLoss="23.01" rerouteNo="0" devices="tripinfo_veh201" vType="car" speedFactor="1.10" vaporized=""/>
    <tripinfo id="veh238" depart="119.00" departLane="802794948#0_0" departPos="5.10" departSpeed="0.00" departDelay="0.00" arrival="170.00" arrivalLane="746528092#0_0" arrivalPos="26.58" arrivalSpeed="13.61" duration="51.00" routeLength="437.97" waitingTime="0.00" waitingCount="0" stopTime="0.00" timeLoss="19.74" rerouteNo="0" devices="tripinfo_veh238" vType="car" speedFactor="1.10" vaporized=""/>
    <tripinfo id="veh247" depart="124.00" departLane="-1305162882_0" departPos="5.10" departSpeed="0.00" departDelay="0.50" arrival="171.00" arrivalLane="-1305162883_0" arrivalPos="67.71" arrivalSpeed="10.53" duration="47.00" routeLength="341.01" waitingTime="0.00" waitingCount="0" stopTime="0.00" timeLoss="13.48" rerouteNo="0" devices="tripinfo_veh247" vType="car" speedFactor="0.84" vaporized=""/>
    <tripinfo id="veh4" depart="2.00" departLane="-744238099#4_0" departPos="5.10" departSpeed="0.00" departDelay="0.00" arrival="174.00" arrivalLane="1364681849#7_0" arrivalPos="936.95" arrivalSpeed="29.32" duration="172.00" routeLength="2151.82" waitingTime="50.00" waitingCount="3" stopTime="0.00" timeLoss="92.78" rerouteNo="0" devices="tripinfo_veh4" vType="car" speedFactor="1.08" vaporized=""/>
    <tripinfo id="veh177" depart="89.00" departLane="1047765852#1_0" departPos="5.10" departSpeed="0.00" departDelay="0.50" arrival="182.00" arrivalLane="1305162881#0_0" arrivalPos="14.25" arrivalSpeed="12.35" duration="93.00" routeLength="1148.67" waitingTime="2.00" waitingCount="1" stopTime="0.00" timeLoss="39.98" rerouteNo="0" devices="tripinfo_veh177" vType="car" speedFactor="1.14" vaporized=""/>
    <tripinfo id="veh3" depart="2.00" departLane="1364681846#0_0" departPos="0.20" departSpeed="0.00" departDelay="0.50" arrival="183.00" arrivalLane="-1266707781_0" arrivalPos="0.20" arrivalSpeed="3.55" duration="181.00" routeLength="641.39" waitingTime="134.00" waitingCount="5" stopTime="0.00" timeLoss="153.99" rerouteNo="0" devices="tripinfo_veh3" vType="car" speedFactor="1.01" vaporized=""/>
    <tripinfo id="veh85" depart="43.00" departLane="548373950#3_0" departPos="5.10" departSpeed="0.00" departDelay="0.50" arrival="187.00" arrivalLane="744796384_0" arrivalPos="198.26" arrivalSpeed="12.46" duration="144.00" routeLength="1353.68" waitingTime="32.00" waitingCount="3" stopTime="0.00" timeLoss="66.58" rerouteNo="0" devices="tripinfo_veh85" vType="car" speedFactor="0.98" vaporized=""/>
    <tripinfo id="veh317" depart="159.00" departLane="649120019#3_0" departPos="5.10" departSpeed="0.00" departDelay="0.50" arrival="187.00" arrivalLane="-649120019#1_0" arrivalPos="69.62" arrivalSpeed="13.50" duration="28.00" routeLength="269.12" waitingTime="0.00" waitingCount="0" stopTime="0.00" timeLoss="7.60" rerouteNo="0" devices="tripinfo_veh317" vType="car" speedFactor="1.02" vaporized=""/>
    <tripinfo id="veh299" depart="150.00" departLane="1211187479_0" departPos="5.10" departSpeed="0.00" departDelay="0.50" arrival="192.00" arrivalLane="749959413#2_0" arrivalPos="98.41" arrivalSpeed="12.05" duration="42.00" routeLength="358.59" waitingTime="0.00" waitingCount="0" stopTime="0.00" timeLoss="12.16" rerouteNo="0" devices="tripinfo_veh299" vType="car" speedFactor="0.92" vaporized=""/>
    <tripinfo id="veh23" depart="12.00" departLane="450752220#1_0" departPos="5.10" departSpeed="0.00" departDelay="0.50" arrival="193.00" arrivalLane="-1210908131#0_0" arrivalPos="535.78" arrivalSpeed="27.71" duration="181.00" routeLength="1875.27" waitingTime="52.00" waitingCount="3" stopTime="0.00" timeLoss="92.78" rerouteNo="0" devices="tripinfo_veh23" vType="car" speedFactor="1.02" vaporized=""/>
    <tripinfo id="veh342" depart="171.00" departLane="-1262877732_0" departPos="5.10" departSpeed="0.00" departDelay="0.00" arrival="194.00" arrivalLane="802794948#0_0" arrivalPos="30.29" arrivalSpeed="11.50" duration="23.00" routeLength="210.87" waitingTime="0.00" waitingCount="0" stopTime="0.00" timeLoss="7.64" rerouteNo="0" devices="tripinfo_veh342" vType="car" speedFactor="1.06" vaporized=""/>
    <tripinfo id="veh350" depart="175.00" departLane="-805971869#1_0" departPos="5.10" departSpeed="0.00" departDelay="0.00" arrival="197.00" arrivalLane="1366734423_0" arrivalPos="58.02" arrivalSpeed="16.48" duration="22.00" routeLength="162.42" waitingTime="0.00" waitingCount="0" stopTime="0.00" timeLoss="4.11" rerouteNo="0" devices="tripinfo_veh350" vType="car" speedFactor="1.21" vaporized=""/>
    <tripinfo id="veh70" depart="35.00" departLane="-744238099#4_0" departPos="5.10" departSpeed="0.00" departDelay="0.00" arrival="199.00" arrivalLane="-1193733759#0_1" arrivalPos="120.62" arrivalSpeed="13.64" duration="164.00" routeLength="1660.28" waitingTime="24.00" waitingCount="4" stopTime="0.00" timeLoss="85.29" rerouteNo="0" devices="tripinfo_veh70" vType="car" speedFactor="1.02" vaporized=""/>
    <tripinfo id="veh267" depart="135.00" departLane="802794959_0" departPos="5.10" departSpeed="0.00" departDelay="1.50" arrival="199.00" arrivalLane="450752220#0_0" arrivalPos="115.25" arrivalSpeed="14.68" duration="64.00" routeLength="619.84" waitingTime="0.00" waitingCount="0" stopTime="0.00" timeLoss="21.12" rerouteNo="0" devices="tripinfo_veh267" vType="car" speedFactor="1.13" vaporized=""/>
    <tripinfo id="veh88" depart="44.00" departLane="802000252#5_0" departPos="5.10" departSpeed="0.00" departDelay="0.00" arrival="202.00" arrivalLane="-744796384_0" arrivalPos="199.26" arrivalSpeed="14.07" duration="158.00" routeLength="1261.56" waitingTime="59.00" waitingCount="3" stopTime="0.00" timeLoss="92.28" rerouteNo="0" devices="tripinfo_veh88" vType="car" speedFactor="1.03" vaporized=""/>
    <tripinfo id="veh305" depart="153.00" departLane="-802794952_0" departPos="5.10" departSpeed="0.00" departDelay="0.50" arrival="205.00" arrivalLane="1305162886_0" arrivalPos="35.57" arrivalSpeed="13.20" duration="52.00" routeLength="497.12" waitingTime="0.00" waitingCount="0" stopTime="0.00" timeLoss="12.55" rerouteNo="0" devices="tripinfo_veh305" vType="car" speedFactor="0.98" vaporized=""/>
    <tripinfo id="veh379" depart="190.00" departLane="159463136#1_0" departPos="5.10" departSpeed="0.00" departDelay="0.50" arrival="208.00" arrivalLane="744238099#0_0" arrivalPos="86.63" arrivalSpeed="24.57" duration="18.00" routeLength="284.52" waitingTime="0.00" waitingCount="0" stopTime="0.00" timeLoss="6.36" rerouteNo="0" devices="tripinfo_veh379" vType="car" speedFactor="1.11" vaporized=""/>
    <tripinfo id="veh318" depart="159.00" departLane="-1193733759#1_0" departPos="0.20" departSpeed="0.00" departDelay="0.00" arrival="212.00" arrivalLane="-1210908131#0_0" arrivalPos="535.78" arrivalSpeed="20.01" duration="53.00" routeLength="709.94" waitingTime="1.00" waitingCount="1" stopTime="0.00" timeLoss="10.41" rerouteNo="0" devices="tripinfo_veh318" vType="car" speedFactor="0.76" vaporized=""/>
    <tripinfo id="veh345" depart="173.00" departLane="-749959413#2_0" departPos="5.10" departSpeed="0.00" departDelay="0.50" arrival="212.00" arrivalLane="-744240848#0_0" arrivalPos="24.74" arrivalSpeed="12.95" duration="39.00" routeLength="340.67" waitingTime="0.00" waitingCount="0" stopTime="0.00" timeLoss="13.75" rerouteNo="0" devices="tripinfo_veh345" vType="car" speedFactor="1.05" vaporized=""/>
    <tripinfo id="veh306" depart="153.00" departLane="1305162884_0" departPos="5.10" departSpeed="0.00" departDelay="0.00" arrival="222.00" arrivalLane="744796384_0" arrivalPos="198.26" arrivalSpeed="11.84" duration="69.00" routeLength="481.62" waitingTime="7.00" waitingCount="2" stopTime="0.00" timeLoss="24.51" rerouteNo="0" devices="tripinfo_veh306" vType="car" speedFactor="0.85" vaporized=""/>
    <tripinfo id="veh117" depart="134.00" departLane="-1266707781_0" departPos="0.20" departSpeed="0.00" departDelay="75.50" arrival="223.00" arrivalLane="-1210908131#0_0" arrivalPos="535.78" arrivalSpeed="28.67" duration="89.00" routeLength="799.44" waitingTime="45.00" waitingCount="1" stopTime="0.00" timeLoss="61.53" rerouteNo="0" devices="tripinfo_veh117" vType="car" speedFactor="1.07" vaporized=""/>
    <tripinfo id="veh143" depart="72.00" departLane="-750006607_0" departPos="5.10" departSpeed="0.00" departDelay="0.50" arrival="223.00" arrivalLane="-1305162882_0" arrivalPos="77.93" arrivalSpeed="13.33" duration="151.00" routeLength="1592.82" waitingTime="20.00" waitingCount="2" stopTime="0.00" timeLoss="57.95" rerouteNo="0" devices="tripinfo_veh143" vType="car" speedFactor="1.03" vaporized=""/>
    <tripinfo id="veh403" depart="202.00" departLane="-744240848#0_0" departPos="5.10" departSpeed="0.00" departDelay="0.50" arrival="229.00" arrivalLane="1305162886_0" arrivalPos="35.57" arrivalSpeed="12.56" duration="27.00" routeLength="204.54" waitingTime="0.00" waitingCount="0" stopTime="0.00" timeLoss="8.27" rerouteNo="0" devices="tripinfo_veh403" vType="car" speedFactor="0.90" vaporized=""/>
    <tripinfo id="veh321" depart="162.00" departLane="649120019#3_0" departPos="5.10" departSpeed="0.00" departDelay="1.50" arrival="236.00" arrivalLane="-649120019#0_0" arrivalPos="52.40" arrivalSpeed="8.56" duration="74.00" routeLength="335.76" waitingTime="25.00" waitingCount="2" stopTime="0.00" timeLoss="45.23" rerouteNo="0" devices="tripinfo_veh321" vType="car" speedFactor="0.89" vaporized=""/>
    <tripinfo id="veh315" depart="158.00" departLane="-649120019#2_0" departPos="5.10" departSpeed="0.00" departDelay="0.50" arrival="244.00" arrivalLane="-159463136#1_0" arrivalPos="88.11" arrivalSpeed="19.31" duration="86.00" routeLength="1083.88" waitingTime="0.00" waitingCount="0" stopTime="0.00" timeLoss="23.30" rerouteNo="0" devices="tripinfo_veh315" vType="car" speedFactor="1.08" vaporized=""/>
    <tripinfo id="veh471" depart="236.00" departLane="-649120019#2_0" departPos="5.10" departSpeed="0.00" departDelay="0.50" arrival="250.00" arrivalLane="1211177868_0" arrivalPos="40.48" arrivalSpeed="15.80" duration="14.00" routeLength="90.55" waitingTime="0.00" waitingCount="0" stopTime="0.00" timeLoss="7.33" rerouteNo="0" devices="tripinfo_veh471" vType="car" speedFactor="1.32" vaporized=""/>
    <tripinfo id="veh402" depart="201.00" departLane="1047765852#0_0" departPos="5.10" departSpeed="0.00" departDelay="0.00" arrival="251.00" arrivalLane="1177215276_0" arrivalPos="18.14" arrivalSpeed="10.23" duration="50.00" routeLength="713.03" waitingTime="0.00" waitingCount="0" stopTime="0.00" timeLoss="20.45" rerouteNo="0" devices="tripinfo_veh402" vType="car" speedFactor="1.20" vaporized=""/>
    <tripinfo id="veh433" depart="217.00" departLane="744528054#0_0" departPos="5.10" departSpeed="0.00" departDelay="0.50" arrival="251.00" arrivalLane="750356550_0" arrivalPos="76.60" arrivalSpeed="14.89" duration="34.00" routeLength="352.37" waitingTime="0.00" waitingCount="0" stopTime="0.00" timeLoss="10.11" rerouteNo="0" devices="tripinfo_veh433" vType="car" speedFactor="1.12" vaporized=""/>
    <tripinfo id="veh407" depart="204.00" departLane="1195176490_0" departPos="5.10" departSpeed="0.00" departDelay="0.50" arrival="254.00" arrivalLane="802794946#0_0" arrivalPos="153.61" arrivalSpeed="13.72" duration="50.00" routeLength="410.69" waitingTime="4.00" waitingCount="1" stopTime="0.00" timeLoss="17.65" rerouteNo="0" devices="tripinfo_veh407" vType="car" speedFactor="1.00" vaporized=""/>
    <tripinfo id="veh199" depart="100.00" departLane="-744796384_0" departPos="5.10" departSpeed="0.00" departDelay="0.50" arrival="255.00" arrivalLane="-744238099#1_0" arrivalPos="46.87" arrivalSpeed="23.15" duration="155.00" routeLength="1064.19" waitingTime="52.00" waitingCount="2" stopTime="0.00" timeLoss="94.06" rerouteNo="0" devices="tripinfo_veh199" vType="car" speedFactor="1.08" vaporized=""/>
    <tripinfo id="veh357" depart="179.00" departLane="-745527904#0_0" departPos="5.10" departSpeed="0.00" departDelay="0.50" arrival="255.00" arrivalLane="804889484_0" arrivalPos="218.58" arrivalSpeed="15.16" duration="76.00" routeLength="920.06" waitingTime="2.00" waitingCount="1" stopTime="0.00" timeLoss="24.50" rerouteNo="0" devices="tripinfo_veh357" vType="car" speedFactor="1.16" vaporized=""/>
    <tripinfo id="veh189" depart="95.00" departLane="-649120019#3_0" departPos="5.10" departSpeed="0.00" departDelay="0.50" arrival="271.00" arrivalLane="-1305162884_0" arrivalPos="69.51" arrivalSpeed="14.40" duration="176.00" routeLength="1718.37" waitingTime="39.00" waitingCount="2" stopTime="0.00" timeLoss="80.53" rerouteNo="0" devices="tripinfo_veh189" vType="car" speedFactor="1.09" vaporized=""/>
    <tripinfo id="veh96" depart="48.00" departLane="548373992#1_0" departPos="5.10" departSpeed="0.00" departDelay="0.00" arrival="272.00" arrivalLane="1364681849#0_1" arrivalPos="72.86" arrivalSpeed="24.98" duration="224.00" routeLength="3012.35" waitingTime="0.00" waitingCount="0" stopTime="0.00" timeLoss="24.82" rerouteNo="0" devices="tripinfo_veh96" vType="car" speedFactor="1.01" vaporized=""/>
    <tripinfo id="veh356" depart="178.00" departLane="-749702421_0" departPos="5.10" departSpeed="0.00" departDelay="0.00" arrival="272.00" arrivalLane="-1193733759#3_1" arrivalPos="51.56" arrivalSpeed="14.92" duration="94.00" routeLength="1230.79" waitingTime="0.00" waitingCount="0" stopTime="0.00" timeLoss="35.63" rerouteNo="0" devices="tripinfo_veh356" vType="car" speedFactor="1.13" vaporized=""/>