<?xml version="1.0" encoding="UTF-8"?>

<!-- generated on 2026-03-15 23:30:53 by Eclipse SUMO sumo Version 1.24.0
<sumoConfiguration xmlns:xsi="http://www.w3.org/2001/XMLSchema-instance" xsi:noNamespaceSchemaLocation="http://sumo.dlr.de/xsd/sumoConfiguration.xsd">

    <input>
        <net-file value="best_map.net.xml"/>
        <route-files value="simulation_optimized.rou.xml"/>
    </input>

    <output>
        <tripinfo-output value="tripinfo_new.xml"/>
    </output>

    <report>
        <duration-log.statistics value="true"/>
    </report>

</sumoConfiguration>
-->

<tripinfos xmlns:xsi="http://www.w3.org/2001/XMLSchema-instance" xsi:noNamespaceSchemaLocation="http://sumo.dlr.de/xsd/tripinfo_file.xsd">
    <tripinfo id="veh17" depart="9.00" departLane="1364681851#1_0" departPos="0.20" departSpeed="0.00" departDelay="0.50" arrival="35.00" arrivalLane="-1047765852#0_0" arrivalPos="18.17" arrivalSpeed="9.67" duration="26.00" routeLength="248.19" waitingTime="0.00" waitingCount="0" stopTime="0.00" timeLoss="10.41" rerouteNo="0" devices="tripinfo_veh17" vType="car" speedFactor="0.99" vaporized=""/>
    <tripinfo id="veh0" depart="0.00" departLane="895443202_0" departPos="5.10" departSpeed="0.00" departDelay="0.00" arrival="41.00" arrivalLane="-744238099#5_0" arrivalPos="0.20" arrivalSpeed="5.82" duration="41.00" routeLength="318.14" waitingTime="0.00" waitingCount="0" stopTime="0.00" timeLoss="20.85" rerouteNo="0" devices="tripinfo_veh0" vType="car" speedFactor="1.06" vaporized=""/>
    <tripinfo id="veh54" depart="27.00" departLane="1364681851#2_0" departPos="5.10" departSpeed="0.00" departDelay="0.00" arrival="48.00" arrivalLane="-802000252#5_0" arrivalPos="117.07" arrivalSpeed="15.07" duration="21.00" routeLength="205.40" waitingTime="0.00" waitingCount="0" stopTime="0.00" timeLoss="8.70" rerouteNo="0" devices="tripinfo_veh54" vType="car" speedFactor="1.09" vaporized=""/>
    <tripinfo id="veh7" depart="4.00" departLane="548373950#5_0" departPos="5.10" departSpeed="0.00" departDelay="0.50" arrival="49.00" arrivalLane="1364681849#5_0" arrivalPos="12.42" arrivalSpeed="28.84" duration="45.00" routeLength="734.99" waitingTime="0.00" waitingCount="0" stopTime="0.00" timeLoss="9.35" rerouteNo="0" devices="tripinfo_veh7" vType="car" speedFactor="1.05" vaporized=""/>
    <tripinfo id="veh35" depart="18.00" departLane="1177215277_0" departPos="5.10" departSpeed="0.00" departDelay="0.50" arrival="53.00" arrivalLane="-1193733759#1_0" arrivalPos="0.20" arrivalSpeed="11.57" duration="35.00" routeLength="403.73" waitingTime="0.00" waitingCount="0" stopTime="0.00" timeLoss="15.44" rerouteNo="0" devices="tripinfo_veh35" vType="car" speedFactor="1.18" vaporized=""/>
    <tripinfo id="veh100" depart="50.00" departLane="1305162882_0" departPos="5.10" departSpeed="0.00" departDelay="0.00" arrival="82.00" arrivalLane="-1305162884_0" arrivalPos="73.29" arrivalSpeed="12.91" duration="32.00" routeLength="283.25" waitingTime="0.00" waitingCount="0" stopTime="0.00" timeLoss="9.73" rerouteNo="0" devices="tripinfo_veh100" vType="car" speedFactor="1.02" vaporized=""/>
    <tripinfo id="veh26" depart="13.00" departLane="802794946#1_0" departPos="5.10" departSpeed="0.00" departDelay="0.00" arrival="86.00" arrivalLane="749959413#4_0" arrivalPos="63.56" arrivalSpeed="13.25" duration="73.00" routeLength="797.80" waitingTime="0.00" waitingCount="0" stopTime="0.00" timeLoss="14.86" rerouteNo="0" devices="tripinfo_veh26" vType="car" speedFactor="1.01" vaporized=""/>
    <tripinfo id="veh75" depart="52.00" departLane="1195176494_0" departPos="5.10" departSpeed="0.00" departDelay="14.50" arrival="86.00" arrivalLane="450752220#3_0" arrivalPos="122.22" arrivalSpeed="12.46" duration="34.00" routeLength="363.09" waitingTime="0.00" waitingCount="0" stopTime="0.00" timeLoss="4.74" rerouteNo="0" devices="tripinfo_veh75" vType="car" speedFactor="0.91" vaporized=""/>
    <tripinfo id="veh22" depart="11.00" departLane="-450752220#0_0" departPos="5.10" departSpeed="0.00" departDelay="0.00" arrival="87.00" arrivalLane="749702421_0" arrivalPos="69.59" arrivalSpeed="11.79" duration="76.00" routeLength="727.93" waitingTime="0.00" waitingCount="0" stopTime="0.00" timeLoss="16.53" rerouteNo="0" devices="tripinfo_veh22" vType="car" speedFactor="0.94" vaporized=""/>
    <tripinfo id="veh117" depart="61.00" departLane="1211177868_0" departPos="5.10" departSpeed="0.00" departDelay="2.50" arrival="92.00" arrivalLane="-649120019#0_0" arrivalPos="52.40" arrivalSpeed="11.61" duration="31.00" routeLength="261.96" waitingTime="0.00" waitingCount="0" stopTime="0.00" timeLoss="7.98" rerouteNo="0" devices="tripinfo_veh117" vType="car" speedFactor="0.89" vaporized=""/>
    <tripinfo id="veh83" depart="44.00" departLane="750006607_0" departPos="5.10" departSpeed="0.00" departDelay="2.50" arrival="101.00" arrivalLane="-895432952_0" arrivalPos="27.41" arrivalSpeed="11.28" duration="57.00" routeLength="420.22" waitingTime="3.00" waitingCount="1" stopTime="0.00" timeLoss="24.72" rerouteNo="0" devices="tripinfo_veh83" vType="car" speedFactor="1.06" vaporized=""/>
    <tripinfo id="veh112" depart="59.00" departLane="-749959413#3_0" departPos="5.10" departSpeed="0.00" departDelay="3.00" arrival="102.00" arrivalLane="450752220#3_0" arrivalPos="122.22" arrivalSpeed="14.74" duration="43.00" routeLength="526.02" waitingTime="0.00" waitingCount="0" stopTime="0.00" timeLoss="7.11" rerouteNo="0" devices="tripinfo_veh112" vType="car" speedFactor="1.10" vaporized=""/>
    <tripinfo id="veh104" depart="52.00" departLane="-805971869#1_0" departPos="5.10" departSpeed="0.00" departDelay="0.00" arrival="109.00" arrivalLane="-805333889_0" arrivalPos="143.33" arrivalSpeed="12.49" duration="57.00" routeLength="329.33" waitingTime="0.00" waitingCount="0" stopTime="0.00" timeLoss="8.91" rerouteNo="0" devices="tripinfo_veh104" vType="car" speedFactor="0.92" vaporized=""/>
    <tripinfo id="veh29" depart="15.00" departLane="745188104#1_0" departPos="5.10" departSpeed="0.00" departDelay="0.50" arrival="117.00" arrivalLane="746528092#2_0" arrivalPos="24.65" arrivalSpeed="5.07" duration="102.00" routeLength="555.65" waitingTime="19.00" waitingCount="2" stopTime="0.00" timeLoss="56.71" rerouteNo="0" devices="tripinfo_veh29" vType="car" speedFactor="0.83" vaporized=""/>
    <tripinfo id="veh43" depart="22.00" departLane="1364681851#0_0" departPos="5.10" departSpeed="0.00" departDelay="0.50" arrival="119.00" arrivalLane="548373963#1_0" arrivalPos="53.75" arrivalSpeed="16.06" duration="97.00" routeLength="480.92" waitingTime="42.00" waitingCount="2" stopTime="0.00" timeLoss="78.81" rerouteNo="0" devices="tripinfo_veh43" vType="car" speedFactor="1.18" vaporized=""/>
    <tripinfo id="veh84" depart="42.00" departLane="-744238099#3_0" departPos="5.10" departSpeed="0.00" departDelay="0.00" arrival="119.00" arrivalLane="745188104#1_0" arrivalPos="8.92" arrivalSpeed="6.85" duration="77.00" routeLength="788.33" waitingTime="5.00" waitingCount="2" stopTime="0.00" timeLoss="35.29" rerouteNo="0" devices="tripinfo_veh84" vType="car" speedFactor="0.96" vaporized=""/>
    <tripinfo id="veh30" depart="15.00" departLane="-1047765852#1_0" departPos="5.10" departSpeed="0.00" departDelay="0.00" arrival="121.00" arrivalLane="749999920#0_0" arrivalPos="50.05" arrivalSpeed="12.05" duration="106.00" routeLength="681.74" waitingTime="22.00" waitingCount="2" stopTime="0.00" timeLoss="52.04" rerouteNo="0" devices="tripinfo_veh30" vType="car" speedFactor="0.87" vaporized=""/>
    <tripinfo id="veh203" depart="102.00" departLane="1193733759#1_0" departPos="0.20" departSpeed="0.00" departDelay="0.50" arrival="122.00" arrivalLane="-1305162884_0" arrivalPos="73.29" arrivalSpeed="13.78" duration="20.00" routeLength="168.76" waitingTime="0.00" waitingCount="0" stopTime="0.00" timeLoss="6.87" rerouteNo="0" devices="tripinfo_veh203" vType="car" speedFactor="1.06" vaporized=""/>
    <tripinfo id="veh202" depart="101.00" departLane="-802794948#1_0" departPos="5.10" departSpeed="0.00" departDelay="0.00" arrival="123.00" arrivalLane="1195176490_0" arrivalPos="51.02" arrivalSpeed="14.23" duration="22.00" routeLength="181.80" waitingTime="0.00" waitingCount="0" stopTime="0.00" timeLoss="7.87" rerouteNo="0" devices="tripinfo_veh202" vType="car" speedFactor="1.08" vaporized=""/>
    <tripinfo id="veh61" depart="31.00" departLane="1364681851#0_0" departPos="5.10" departSpeed="0.00" departDelay="0.50" arrival="127.00" arrivalLane="1305162886_0" arrivalPos="35.57" arrivalSpeed="12.95" duration="96.00" routeLength="764.52" waitingTime="21.00" waitingCount="1" stopTime="0.00" timeLoss="41.98" rerouteNo="0" devices="tripinfo_veh61" vType="car" speedFactor="1.02" vaporized=""/>
    <tripinfo id="veh41" depart="29.00" departLane="1364681134#0_0" departPos="5.10" departSpeed="0.00" departDelay="8.50" arrival="130.00" arrivalLane="548373963#3_0" arrivalPos="22.10" arrivalSpeed="10.35" duration="101.00" routeLength="379.67" waitingTime="49.00" waitingCount="2" stopTime="0.00" timeLoss="83.14" rerouteNo="0" devices="tripinfo_veh41" vType="car" speedFactor="1.02" vaporized=""/>
    <tripinfo id="veh182" depart="91.00" departLane="-802794955_0" departPos="5.10" departSpeed="0.00" departDelay="0.00" arrival="131.00" arrivalLane="548373963#1_0" arrivalPos="53.75" arrivalSpeed="14.24" duration="40.00" routeLength="380.52" waitingTime="0.00" waitingCount="0" stopTime="0.00" timeLoss="15.59" rerouteNo="0" devices="tripinfo_veh182" vType="car" speedFactor="0.88" vaporized=""/>
    <tripinfo id="veh140" depart="70.00" departLane="-801397524_0" departPos="5.10" departSpeed="0.00" departDelay="0.00" arrival="137.00" arrivalLane="1364681851#0_1" arrivalPos="5.69" arrivalSpeed="23.18" duration="67.00" routeLength="754.79" waitingTime="0.00" waitingCount="0" stopTime="0.00" timeLoss="16.09" rerouteNo="0" devices="tripinfo_veh140" vType="car" speedFactor="1.03" vaporized=""/>
    <tripinfo id="veh176" depart="88.00" departLane="1262877731#2_0" departPos="5.10" departSpeed="0.00" departDelay="0.00" arrival="141.00" arrivalLane="-1195176494_0" arrivalPos="16.05" arrivalSpeed="15.10" duration="53.00" routeLength="402.14" waitingTime="3.00" waitingCount="1" stopTime="0.00" timeLoss="26.09" rerouteNo="0" devices="tripinfo_veh176" vType="car" speedFactor="1.18" vaporized=""/>
    <tripinfo id="veh180" depart="90.00" departLane="1262877732_0" departPos="5.10" departSpeed="0.00" departDelay="0.00" arrival="143.00" arrivalLane="1262877731#0_0" arrivalPos="26.11" arrivalSpeed="11.58" duration="53.00" routeLength="394.07" waitingTime="5.00" waitingCount="1" stopTime="0.00" timeLoss="24.50" rerouteNo="0" devices="tripinfo_veh180" vType="car" speedFactor="1.14" vaporized=""/>
    <tripinfo id="veh258" depart="129.00" departLane="744240848#0_0" departPos="5.10" departSpeed="0.00" departDelay="0.00" arrival="146.00" arrivalLane="1305162885_0" arrivalPos="33.60" arrivalSpeed="12.92" duration="17.00" routeLength="145.37" waitingTime="0.00" waitingCount="0" stopTime="0.00" timeLoss="5.79" rerouteNo="0" devices="tripinfo_veh258" vType="car" speedFactor="0.99" vaporized=""/>
    <tripinfo id="veh158" depart="79.00" departLane="-1305162886_0" departPos="5.10" departSpeed="0.00" departDelay="0.00" arrival="148.00" arrivalLane="1262877732_0" arrivalPos="40.95" arrivalSpeed="15.39" duration="69.00" routeLength="820.60" waitingTime="0.00" waitingCount="0" stopTime="0.00" timeLoss="13.86" rerouteNo="0" devices="tripinfo_veh158" vType="car" speedFactor="1.11" vaporized=""/>
    <tripinfo id="veh260" depart="130.00" departLane="-1210908131#1_0" departPos="5.10" departSpeed="0.00" departDelay="0.00" arrival="155.00" arrivalLane="1305162884_0" arrivalPos="72.55" arrivalSpeed="14.64" duration="25.00" routeLength="252.13" waitingTime="0.00" waitingCount="0" stopTime="0.00" timeLoss="7.18" rerouteNo="0" devices="tripinfo_veh260" vType="car" speedFactor="1.14" vaporized=""/>
    <tripinfo id="veh120" depart="60.00" departLane="1262877731#1_0" departPos="5.10" departSpeed="0.00" departDelay="0.00" arrival="158.00" arrivalLane="-750356550_0" arrivalPos="77.65" arrivalSpeed="13.24" duration="98.00" routeLength="1021.44" waitingTime="0.00" waitingCount="0" stopTime="0.00" timeLoss="23.45" rerouteNo="0" devices="tripinfo_veh120" vType="car" speedFactor="1.03" vaporized=""/>
    <tripinfo id="veh195" depart="101.00" departLane="-1211218982_0" departPos="5.10" departSpeed="0.00" departDelay="3.50" arrival="161.00" arrivalLane="-548373963#0_0" arrivalPos="439.87" arrivalSpeed="24.25" duration="60.00" routeLength="733.48" waitingTime="0.00" waitingCount="0" stopTime="0.00" timeLoss="12.22" rerouteNo="0" devices="tripinfo_veh195" vType="car" speedFactor="0.89" vaporized=""/>
    <tripinfo id="veh131" depart="77.00" departLane="-749959413#1_0" departPos="5.10" departSpeed="0.00" departDelay="11.50" arrival="174.00" arrivalLane="749702421_0" arrivalPos="69.59" arrivalSpeed="12.92" duration="97.00" routeLength="419.95" waitingTime="19.00" waitingCount="3" stopTime="0.00" timeLoss="63.49" rerouteNo="0" devices="tripinfo_veh131" vType="car" speedFactor="0.99" vaporized=""/>
    <tripinfo id="veh309" depart="155.00" departLane="-802000252#3_0" departPos="5.10" departSpeed="0.00" departDelay="0.50" arrival="176.00" arrivalLane="802000252#2_0" arrivalPos="0.20" arrivalSpeed="2.89" duration="21.00" routeLength="26.13" waitingTime="10.00" waitingCount="1" stopTime="0.00" timeLoss="18.26" rerouteNo="0" devices="tripinfo_veh309" vType="car" speedFactor="0.97" vaporized=""/>
    <tripinfo id="veh268" depart="134.00" departLane="1305162885_0" departPos="5.10" departSpeed="0.00" departDelay="0.00" arrival="177.00" arrivalLane="-749959413#0_0" arrivalPos="77.70" arrivalSpeed="15.40" duration="43.00" routeLength="471.26" waitingTime="0.00" waitingCount="0" stopTime="0.00" timeLoss="10.63" rerouteNo="0" devices="tripinfo_veh268" vType="car" speedFactor="1.13" vaporized=""/>
    <tripinfo id="veh295" depart="148.00" departLane="901028067#0_0" departPos="0.57" departSpeed="0.00" departDelay="0.50" arrival="196.00" arrivalLane="744528054#1_0" arrivalPos="369.29" arrivalSpeed="13.45" duration="48.00" routeLength="581.19" waitingTime="2.00" waitingCount="1" stopTime="0.00" timeLoss="6.57" rerouteNo="0" devices="tripinfo_veh295" vType="car" speedFactor="1.04" vaporized=""/>
    <tripinfo id="veh55" depart="28.00" departLane="548373963#1_0" departPos="5.10" departSpeed="0.00" departDelay="0.50" arrival="197.00" arrivalLane="1364681849#7_0" arrivalPos="936.95" arrivalSpeed="26.72" duration="169.00" routeLength="1977.48" waitingTime="48.00" waitingCount="3" stopTime="0.00" timeLoss="96.26" rerouteNo="0" devices="tripinfo_veh55" vType="car" speedFactor="1.00" vaporized=""/>
    <tripinfo id="veh364" depart="182.00" departLane="-746528092#2_0" departPos="5.10" departSpeed="0.00" departDelay="0.00" arrival="199.00" arrivalLane="-746528092#0_0" arrivalPos="26.37" arrivalSpeed="11.23" duration="17.00" routeLength="110.51" waitingTime="0.00" waitingCount="0" stopTime="0.00" timeLoss="6.74" rerouteNo="0" devices="tripinfo_veh364" vType="car" speedFactor="0.87" vaporized=""/>
    <tripinfo id="veh171" depart="86.00" departLane="-749959413#4_0" departPos="5.10" departSpeed="0.00" departDelay="0.50" arrival="201.00" arrivalLane="450752220#0_0" arrivalPos="115.25" arrivalSpeed="14.54" duration="115.00" routeLength="867.66" waitingTime="20.00" waitingCount="3" stopTime="0.00" timeLoss="54.76" rerouteNo="0" devices="tripinfo_veh171" vType="car" speedFactor="1.07" vaporized=""/>
    <tripinfo id="veh277" depart="139.00" departLane="-746528092#0_0" departPos="5.10" departSpeed="0.00" departDelay="0.50" arrival="201.00" arrivalLane="749959413#4_0" arrivalPos="63.56" arrivalSpeed="14.75" duration="62.00" routeLength="504.38" waitingTime="10.00" waitingCount="1" stopTime="0.00" timeLoss="28.68" rerouteNo="0" devices="tripinfo_veh277" vType="car" speedFactor="1.14" vaporized=""/>
    <tripinfo id="veh270" depart="135.00" departLane="805971869#2_0" departPos="5.10" departSpeed="0.00" departDelay="0.00" arrival="202.00" arrivalLane="805333889_0" arrivalPos="138.77" arrivalSpeed="14.06" duration="67.00" routeLength="537.19" waitingTime="0.00" waitingCount="0" stopTime="0.00" timeLoss="15.67" rerouteNo="0" devices="tripinfo_veh270" vType="car" speedFactor="1.01" vaporized=""/>
    <tripinfo id="veh254" depart="127.00" departLane="-450752220#3_0" departPos="5.10" departSpeed="0.00" departDelay="0.00" arrival="203.00" arrivalLane="802794948#1_0" arrivalPos="72.98" arrivalSpeed="12.62" duration="76.00" routeLength="588.21" waitingTime="15.00" waitingCount="1" stopTime="0.00" timeLoss="29.37" rerouteNo="0" devices="tripinfo_veh254" vType="car" speedFactor="0.97" vaporized=""/>
    <tripinfo id="veh134" depart="67.00" departLane="-450752220#2_0" departPos="5.10" departSpeed="0.00" departDelay="0.00" arrival="204.00" arrivalLane="744528054#0_0" arrivalPos="188.89" arrivalSpeed="14.69" duration="137.00" routeLength="1293.10" waitingTime="23.00" waitingCount="1" stopTime="0.00" timeLoss="49.09" rerouteNo="0" devices="tripinfo_veh134" vType="car" speedFactor="1.10" vaporized=""/>
    <tripinfo id="veh172" depart="86.00" departLane="763017695#1_0" departPos="5.10" departSpeed="0.00" departDelay="0.00" arrival="204.00" arrivalLane="1111261524_0" arrivalPos="62.17" arrivalSpeed="12.54" duration="118.00" routeLength="731.17" waitingTime="2.00" waitingCount="1" stopTime="0.00" timeLoss="25.05" rerouteNo="0" devices="tripinfo_veh172" vType="car" speedFactor="0.93" vaporized=""/>
    <tripinfo id="veh25" depart="13.00" departLane="-746528092#2_0" departPos="5.10" departSpeed="0.00" departDelay="0.50" arrival="205.00" arrivalLane="-804889483_0" arrivalPos="49.62" arrivalSpeed="13.57" duration="192.00" routeLength="1102.91" waitingTime="90.00" waitingCount="2" stopTime="0.00" timeLoss="127.78" rerouteNo="0" devices="tripinfo_veh25" vType="car" speedFactor="1.02" vaporized=""/>
    <tripinfo id="veh294" depart="147.00" departLane="-1262877731#1_0" departPos="5.10" departSpeed="0.00" departDelay="0.00" arrival="205.00" arrivalLane="746528091_0" arrivalPos="109.73" arrivalSpeed="14.82" duration="58.00" routeLength="577.17" waitingTime="0.00" waitingCount="0" stopTime="0.00" timeLoss="19.40" rerouteNo="0" devices="tripinfo_veh294" vType="car" speedFactor="1.13" vaporized=""/>
    <tripinfo id="veh34" depart="17.00" departLane="-804889484_0" departPos="5.10" departSpeed="0.00" departDelay="0.00" arrival="206.00" arrivalLane="-805971869#1_0" arrivalPos="86.42" arrivalSpeed="4.41" duration="189.00" routeLength="1472.27" waitingTime="13.00" waitingCount="2" stopTime="0.00" timeLoss="58.47" rerouteNo="0" devices="tripinfo_veh34" vType="car" speedFactor="0.93" vaporized=""/>
    <tripinfo id="veh186" depart="94.00" departLane="749959413#4_0" departPos="5.10" departSpeed="0.00" departDelay="1.00" arrival="209.00" arrivalLane="-802794959_0" arrivalPos="169.13" arrivalSpeed="14.57" duration="115.00" routeLength="1019.90" waitingTime="14.00" waitingCount="1" stopTime="0.00" timeLoss="42.13" rerouteNo="0" devices="tripinfo_veh186" vType="car" speedFactor="1.05" vaporized=""/>
    <tripinfo id="veh310" depart="155.00" departLane="159463136#2_0" departPos="5.10" departSpeed="0.00" departDelay="0.00" arrival="209.00" arrivalLane="-744238099#0_0" arrivalPos="86.01" arrivalSpeed="19.13" duration="54.00" routeLength="585.18" waitingTime="0.00" waitingCount="0" stopTime="0.00" timeLoss="22.25" rerouteNo="0" devices="tripinfo_veh310" vType="car" speedFactor="0.87" vaporized=""/>
    <tripinfo id="veh375" depart="188.00" departLane="749999921#0_0" departPos="5.10" departSpeed="0.00" departDelay="0.50" arrival="218.00" arrivalLane="-749999920#1_0" arrivalPos="50.72" arrivalSpeed="11.41" duration="30.00" routeLength="257.71" waitingTime="0.00" waitingCount="0" stopTime="0.00" timeLoss="7.74" rerouteNo="0" devices="tripinfo_veh375" vType="car" speedFactor="0.90" vaporized=""/>
    <tripinfo id="veh377" depart="189.00" departLane="901028067#1_0" departPos="5.10" departSpeed="0.00" departDelay="0.50" arrival="222.00" arrivalLane="801397525_0" arrivalPos="64.02" arrivalSpeed="14.15" duration="33.00" routeLength="347.57" waitingTime="0.00" waitingCount="0" stopTime="0.00" timeLoss="13.71" rerouteNo="0" devices="tripinfo_veh377" vType="car" speedFactor="1.02" vaporized=""/>
    <tripinfo id="veh340" depart="170.00" departLane="-802794953_0" departPos="5.10" departSpeed="0.00" departDelay="0.00" arrival="236.00" arrivalLane="1195176490_0" arrivalPos="51.02" arrivalSpeed="13.28" duration="66.00" routeLength="559.87" waitingTime="1.00" waitingCount="1" stopTime="0.00" timeLoss="20.93" rerouteNo="0" devices="tripinfo_veh340" vType="car" speedFactor="0.98" vaporized=""/>
    <tripinfo id="veh440" depart="220.00" departLane="1262877732_0" departPos="5.10" departSpeed="0.00" departDelay="0.00" arrival="237.00" arrivalLane="-1262877731#2_0" arrivalPos="41.22" arrivalSpeed="11.86" duration="17.00" routeLength="122.79" waitingTime="0.00" waitingCount="0" stopTime="0.00" timeLoss="6.30" rerouteNo="0" devices="tripinfo_veh440" vType="car" speedFactor="0.93" vaporized=""/>
    <tripinfo id="veh412" depart="206.00" departLane="1262877731#2_0" departPos="5.10" departSpeed="0.00" departDelay="0.00" arrival="240.00" arrivalLane="1195176494_0" arrivalPos="16.05" arrivalSpeed="8.15" duration="34.00" routeLength="266.14" waitingTime="0.00" waitingCount="0" stopTime="0.00" timeLoss="11.34" rerouteNo="0" devices="tripinfo_veh412" vType="car" speedFactor="0.90" vaporized=""/>
    <tripinfo id="veh10" depart="5.00" departLane="1262877731#2_0" departPos="5.10" departSpeed="0.00" departDelay="0.00" arrival="242.00" arrivalLane="1195269934_0" arrivalPos="203.27" arrivalSpeed="11.60" duration="237.00" routeLength="1822.16" waitingTime="39.00" waitingCount="7" stopTime="0.00" timeLoss="94.55" rerouteNo="0" devices="tripinfo_veh10" vType="car" speedFactor="0.86" vaporized=""/>
    <tripinfo id="veh304" depart="152.00" departLane="744528054#1_0" departPos="5.10" departSpeed="0.00" departDelay="0.00" arrival="242.00" arrivalLane="-744528054#0_0" arrivalPos="193.60" arrivalSpeed="10.78" duration="90.00" routeLength="946.95" waitingTime="0.00" waitingCount="0" stopTime="0.00" timeLoss="10.19" rerouteNo="0" devices="tripinfo_veh304" vType="car" speedFactor="0.87" vaporized=""/>
    <tripinfo id="veh297" depart="149.00" departLane="-804889483_0" departPos="5.10" departSpeed="0.00" departDelay="0.50" arrival="246.00" arrivalLane="744238099#2_0" arrivalPos="17.22" arrivalSpeed="24.94" duration="97.00" routeLength="1336.21" waitingTime="0.00" waitingCount="0" stopTime="0.00" timeLoss="23.59" rerouteNo="0" devices="tripinfo_veh297" vType="car" speedFactor="1.13" vaporized=""/>
    <tripinfo id="veh403" depart="203.00" departLane="-802794948#1_0" departPos="5.10" departSpeed="0.00" departDelay="1.50" arrival="248.00" arrivalLane="-802794950_0" arrivalPos="56.65" arrivalSpeed="12.76" duration="45.00" routeLength="341.99" waitingTime="2.00" waitingCount="1" stopTime="0.00" timeLoss="17.81" rerouteNo="0" devices="tripinfo_veh403" vType="car" speedFactor="0.98" vaporized=""/>
    <tripinfo id="veh342" depart="171.00" departLane="802794949_0" departPos="5.10" departSpeed="0.00" departDelay="0.00" arrival="251.00" arrivalLane="744240848#0_0" arrivalPos="24.74" arrivalSpeed="11.13" duration="80.00" routeLength="741.14" waitingTime="6.00" waitingCount="1" stopTime="0.00" timeLoss="23.52" rerouteNo="0" devices="tripinfo_veh342" vType="car" speedFactor="0.98" vaporized=""/>
    <tripinfo id="veh399" depart="200.00" departLane="749959413#0_0" departPos="5.10" departSpeed="0.00" departDelay="0.50" arrival="252.00" arrivalLane="1262877731#1_0" arrivalPos="28.52" arrivalSpeed="13.99" duration="52.00" routeLength="470.35" waitingTime="1.00" waitingCount="1" stopTime="0.00" timeLoss="16.89" rerouteNo="0" devices="tripinfo_veh399" vType="car" speedFactor="1.02" vaporized=""/>
    <tripinfo id="veh396" depart="207.00" departLane="1210908131#0_0" departPos="5.10" departSpeed="0.00" departDelay="9.00" arrival="254.00" arrivalLane="1305162882_0" arrivalPos="81.84" arrivalSpeed="11.35" duration="47.00" routeLength="646.44" waitingTime="0.00" waitingCount="0" stopTime="0.00" timeLoss="10.82" rerouteNo="0" devices="tripinfo_veh396" vType="car" speedFactor="0.82" vaporized=""/>
    <tripinfo id="veh385" depart="193.00" departLane="-802794946#0_0" departPos="5.10" departSpeed="0.00" departDelay="0.50" arrival="263.00" arrivalLane="-450752220#1_0" arrivalPos="13.84" arrivalSpeed="7.74" duration="70.00" routeLength="518.91" waitingTime="6.00" waitingCount="2" stopTime="0.00" timeLoss="35.13" rerouteNo="0" devices="tripinfo_veh385" vType="car" speedFactor="1.16" vaporized=""/>
    <tripinfo id="veh487" depart="244.00" departLane="1193733759#3_0" departPos="5.10" departSpeed="0.00" departDelay="0.50" arrival="269.00" arrivalLane="1305162883_0" arrivalPos="72.35" arrivalSpeed="13.72" duration="25.00" routeLength="213.23" waitingTime="0.00" waitingCount="0" stopTime="0.00" timeLoss="9.03" rerouteNo="0" devices="tripinfo_veh487" vType="car" speedFactor="1.05" vaporized=""/>
    <tripinfo id="veh133" depart="67.00" departLane="1364681849#3_0" departPos="5.10" departSpeed="0.00" departDelay="0.50" arrival="281.00" arrivalLane="548373950#3_0" arrivalPos="79.99" arrivalSpeed="12.78" duration="214.00" routeLength="449.20" waitingTime="169.00" waitingCount="4" stopTime="0.00" timeLoss="190.53" rerouteNo="0" devices="tripinfo_veh133" vType="car" speedFactor="0.94" vaporized=""/>
    <tripinfo id="veh553" depart="277.00" departLane="749999920#0_0" departPos="5.10" departSpeed="0.00" departDelay="0.50" arrival="290.00" arrivalLane="749999920#1_0" arrivalPos="50.72" arrivalSpeed="14.29" duration="13.00" routeLength="111.06" waitingTime="0.00" waitingCount="0" stopTime="0.00" timeLoss="4.98" rerouteNo="0" devices="tripinfo_veh553" vType="car" speedFactor="1.09" vaporized=""/>
    <tripinfo id="veh473" depart="237.00" departLane="-805971869#3_0" departPos="5.10" departSpeed="0.00" departDelay="0.50" arrival="295.00" arrivalLane="-805333889_0" arrivalPos="143.33" arrivalSpeed="15.29" duration="58.00" routeLength="406.05" waitingTime="0.00" waitingCount="0" stopTime="0.00" timeLoss="7.93" rerouteNo="0" devices="tripinfo_veh473" vType="car" speedFactor="1.13" vaporized=""/>
    <tripinfo id="veh37" depart="19.00" departLane="-548373963#2_0" departPos="5.10" departSpeed="0.00" departDelay="0.50" arrival="300.00" arrivalLane="548373993#3_0" arrivalPos="992.61" arrivalSpeed="15.00" duration="281.00" routeLength="3814.52" waitingTime="6.00" waitingCount="1" stopTime="0.00" timeLoss="31.98" rerouteNo="0" devices="tripinfo_veh37" vType="car" speedFactor="1.15" vaporized=""/>
    <tripinfo id="veh560" depart="280.00" departLane="1211177868_0" departPos="5.10" departSpeed="0.00" departDelay="0.00" arrival="306.00" arrivalLane="-649120019#1_0" arrivalPos="69.62" arrivalSpeed="10.76" duration="26.00" routeLength="195.32" waitingTime="0.00" waitingCount="0" stopTime="0.00" timeLoss="7.75" rerouteNo="0" devices="tripinfo_veh560" vType="car" speedFactor="0.85" vaporized=""/>
    <tripinfo id="veh591" depart="296.00" departLane="-895432952_0" departPos="5.10" departSpeed="0.00" departDelay="0.50" arrival="320.00" arrivalLane="745527904#0_0" arrivalPos="72.59" arrivalSpeed="13.46" duration="24.00" routeLength="203.41" waitingTime="0.00" waitingCount="0" stopTime="0.00" timeLoss="7.21" rerouteNo="0" devices="tripinfo_veh591" vType="car" speedFactor="0.98" vaporized=""/>
    <tripinfo id="veh282" depart="141.00" departLane="-1211177868_0" departPos="5.10" departSpeed="0.00" departDelay="0.00" arrival="324.00" arrivalLane="-159463136#0_0" arrivalPos="1993.85" arrivalSpeed="7.05" duration="183.00" routeLength="3142.37" waitingTime="0.00" waitingCount="0" stopTime="0.00" timeLoss="18.76" rerouteNo="0" devices="tripinfo_veh282" vType="car" speedFactor="0.99" vaporized=""/>
    <tripinfo id="veh486" depart="243.00" departLane="-750356550_0" departPos="5.10" departSpeed="0.00" departDelay="0.00" arrival="324.00" arrivalLane="1262877731#1_0" arrivalPos="28.52" arrivalSpeed="14.32" duration="81.00" routeLength="910.91" waitingTime="0.00" waitingCount="0" stopTime="0.00" timeLoss="16.89" rerouteNo="0" devices="tripinfo_veh486" vType="car" speedFactor="1.05" vaporized=""/>
    <tripinfo id="veh13" depart="7.00" departLane="749999921#0_0" departPos="5.10" departSpeed="0.00" departDelay="0.50" arrival="327.00" arrivalLane="548373993#3_0" arrivalPos="992.61" arrivalSpeed="14.24" duration="320.00" routeLength="4080.71" waitingTime="2.00" waitingCount="1" stopTime="0.00" timeLoss="34.11" rerouteNo="0" devices="tripinfo_veh13" vType="car" speedFactor="1.03" vaporized=""/>
    <tripinfo id="veh3" depart="2.00" departLane="744238099#1_0" departPos="5.10" departSpeed="0.00" departDelay="0.50" arrival="333.00" arrivalLane="1364681851#1_1" arrivalPos="0.20" arrivalSpeed="29.70" duration="331.00" routeLength="273.29" waitingTime="301.00" waitingCount="1" stopTime="0.00" timeLoss="312.12" rerouteNo="0" devices="tripinfo_veh3" vType="car" speedFactor="1.08" vaporized=""/>
    <tripinfo id="veh638" depart="319.00" departLane="-1262877731#2_0" departPos="5.10" departSpeed="0.00" departDelay="0.00" arrival="342.00" arrivalLane="802794948#0_0" arrivalPos="30.29" arrivalSpeed="11.43" duration="23.00" routeLength="169.82" waitingTime="0.00" waitingCount="0" stopTime="0.00" timeLoss="5.90" rerouteNo="0" devices="tripinfo_veh638" vType="car" speedFactor="0.86" vaporized=""/>