<?xml version="1.0" encoding="UTF-8"?>

<!-- generated on 2026-03-15 23:30:04 by Eclipse SUMO sumo Version 1.24.0
<sumoConfiguration xmlns:xsi="http://www.w3.org/2001/XMLSchema-instance" xsi:noNamespaceSchemaLocation="http://sumo.dlr.de/xsd/sumoConfiguration.xsd">

    <input>
        <net-file value="map.net.xml"/>
        <route-files value="simulation.rou.xml"/>
    </input>

    <output>
        <tripinfo-output value="tripinfo_old.xml"/>
    </output>

    <report>
        <duration-log.statistics value="true"/>
    </report>

</sumoConfiguration>
-->

<tripinfos xmlns:xsi="http://www.w3.org/2001/XMLSchema-instance" xsi:noNamespaceSchemaLocation="http://sumo.dlr.de/xsd/tripinfo_file.xsd">
    <tripinfo id="veh17" depart="9.00" departLane="1364681851#1_0" departPos="0.20" departSpeed="0.00" departDelay="0.50" arrival="35.00" arrivalLane="-1047765852#0_0" arrivalPos="18.17" arrivalSpeed="9.68" duration="26.00" routeLength="248.19" waitingTime="0.00" waitingCount="0" stopTime="0.00" timeLoss="10.30" rerouteNo="0" devices="tripinfo_veh17" vType="car" speedFactor="0.99" vaporized=""/>
    <tripinfo id="veh0" depart="0.00" departLane="895443202_0" departPos="5.10" departSpeed="0.00" departDelay="0.00" arrival="41.00" arrivalLane="-744238099#5_0" arrivalPos="0.20" arrivalSpeed="5.34" duration="41.00" routeLength="318.15" waitingTime="0.00" waitingCount="0" stopTime="0.00" timeLoss="20.84" rerouteNo="0" devices="tripinfo_veh0" vType="car" speedFactor="1.06" vaporized=""/>
    <tripinfo id="veh54" depart="27.00" departLane="1364681851#2_0" departPos="5.10" departSpeed="0.00" departDelay="0.00" arrival="47.00" arrivalLane="-802000252#5_0" arrivalPos="117.06" arrivalSpeed="14.62" duration="20.00" routeLength="205.40" waitingTime="0.00" waitingCount="0" stopTime="0.00" timeLoss="8.24" rerouteNo="0" devices="tripinfo_veh54" vType="car" speedFactor="1.09" vaporized=""/>
    <tripinfo id="veh3" depart="2.00" departLane="744238099#1_0" departPos="5.10" departSpeed="0.00" departDelay="0.50" arrival="50.00" arrivalLane="1364681851#1_0" arrivalPos="0.20" arrivalSpeed="4.73" duration="48.00" routeLength="292.55" waitingTime="15.00" waitingCount="1" stopTime="0.00" timeLoss="30.83" rerouteNo="0" devices="tripinfo_veh3" vType="car" speedFactor="1.08" vaporized=""/>
    <tripinfo id="veh7" depart="4.00" departLane="548373950#5_0" departPos="5.10" departSpeed="0.00" departDelay="0.50" arrival="50.00" arrivalLane="1364681849#5_0" arrivalPos="12.41" arrivalSpeed="28.17" duration="46.00" routeLength="735.00" waitingTime="0.00" waitingCount="0" stopTime="0.00" timeLoss="10.49" rerouteNo="0" devices="tripinfo_veh7" vType="car" speedFactor="1.05" vaporized=""/>
    <tripinfo id="veh35" depart="18.00" departLane="1177215277_0" departPos="5.10" departSpeed="0.00" departDelay="0.50" arrival="54.00" arrivalLane="-1193733759#1_0" arrivalPos="0.20" arrivalSpeed="14.33" duration="36.00" routeLength="403.73" waitingTime="0.00" waitingCount="0" stopTime="0.00" timeLoss="15.51" rerouteNo="0" devices="tripinfo_veh35" vType="car" speedFactor="1.18" vaporized=""/>
    <tripinfo id="veh41" depart="23.00" departLane="1364681134#0_0" departPos="5.10" departSpeed="0.00" departDelay="2.50" arrival="77.00" arrivalLane="548373963#3_0" arrivalPos="22.40" arrivalSpeed="11.01" duration="54.00" routeLength="377.93" waitingTime="3.00" waitingCount="1" stopTime="0.00" timeLoss="35.89" rerouteNo="0" devices="tripinfo_veh41" vType="car" speedFactor="1.02" vaporized=""/>
    <tripinfo id="veh27" depart="14.00" departLane="744238099#0_0" departPos="5.10" departSpeed="0.00" departDelay="0.50" arrival="79.00" arrivalLane="-802000252#5_0" arrivalPos="117.06" arrivalSpeed="12.78" duration="65.00" routeLength="608.33" waitingTime="2.00" waitingCount="1" stopTime="0.00" timeLoss="26.56" rerouteNo="0" devices="tripinfo_veh27" vType="car" speedFactor="0.97" vaporized=""/>
    <tripinfo id="veh100" depart="50.00" departLane="1305162882_0" departPos="5.10" departSpeed="0.00" departDelay="0.00" arrival="83.00" arrivalLane="-1305162884_0" arrivalPos="73.29" arrivalSpeed="13.53" duration="33.00" routeLength="283.24" waitingTime="0.00" waitingCount="0" stopTime="0.00" timeLoss="11.40" rerouteNo="0" devices="tripinfo_veh100" vType="car" speedFactor="1.02" vaporized=""/>
    <tripinfo id="veh28" depart="14.00" departLane="-548373963#6_0" departPos="5.10" departSpeed="0.00" departDelay="0.00" arrival="84.00" arrivalLane="-749702421_0" arrivalPos="74.25" arrivalSpeed="11.07" duration="70.00" routeLength="583.14" waitingTime="0.00" waitingCount="0" stopTime="0.00" timeLoss="28.53" rerouteNo="0" devices="tripinfo_veh28" vType="car" speedFactor="0.89" vaporized=""/>
    <tripinfo id="veh75" depart="53.00" departLane="1195176494_0" departPos="5.10" departSpeed="0.00" departDelay="15.50" arrival="88.00" arrivalLane="450752220#3_0" arrivalPos="122.23" arrivalSpeed="11.69" duration="35.00" routeLength="363.11" waitingTime="0.00" waitingCount="0" stopTime="0.00" timeLoss="5.11" rerouteNo="0" devices="tripinfo_veh75" vType="car" speedFactor="0.91" vaporized=""/>
    <tripinfo id="veh22" depart="11.00" departLane="-450752220#0_0" departPos="5.10" departSpeed="0.00" departDelay="0.00" arrival="90.00" arrivalLane="749702421_0" arrivalPos="69.59" arrivalSpeed="12.18" duration="79.00" routeLength="727.93" waitingTime="0.00" waitingCount="0" stopTime="0.00" timeLoss="18.73" rerouteNo="0" devices="tripinfo_veh22" vType="car" speedFactor="0.94" vaporized=""/>
    <tripinfo id="veh43" depart="22.00" departLane="1364681851#0_0" departPos="5.10" departSpeed="0.00" departDelay="0.50" arrival="90.00" arrivalLane="548373963#1_0" arrivalPos="60.35" arrivalSpeed="15.28" duration="68.00" routeLength="491.89" waitingTime="11.00" waitingCount="3" stopTime="0.00" timeLoss="49.59" rerouteNo="0" devices="tripinfo_veh43" vType="car" speedFactor="1.18" vaporized=""/>
    <tripinfo id="veh117" depart="60.00" departLane="1211177868_0" departPos="5.10" departSpeed="0.00" departDelay="1.50" arrival="92.00" arrivalLane="-649120019#0_0" arrivalPos="52.41" arrivalSpeed="12.06" duration="32.00" routeLength="261.98" waitingTime="0.00" waitingCount="0" stopTime="0.00" timeLoss="9.36" rerouteNo="0" devices="tripinfo_veh117" vType="car" speedFactor="0.89" vaporized=""/>
    <tripinfo id="veh26" depart="13.00" departLane="802794946#1_0" departPos="5.10" departSpeed="0.00" departDelay="0.00" arrival="93.00" arrivalLane="749959413#4_0" arrivalPos="63.55" arrivalSpeed="13.99" duration="80.00" routeLength="797.82" waitingTime="2.00" waitingCount="1" stopTime="0.00" timeLoss="20.87" rerouteNo="0" devices="tripinfo_veh26" vType="car" speedFactor="1.01" vaporized=""/>
    <tripinfo id="veh121" depart="61.00" departLane="548373963#6_0" departPos="5.10" departSpeed="0.00" departDelay="0.50" arrival="97.00" arrivalLane="763017695#0_0" arrivalPos="12.97" arrivalSpeed="5.58" duration="36.00" routeLength="348.17" waitingTime="0.00" waitingCount="0" stopTime="0.00" timeLoss="10.02" rerouteNo="0" devices="tripinfo_veh121" vType="car" speedFactor="1.06" vaporized=""/>
    <tripinfo id="veh83" depart="44.00" departLane="750006607_0" departPos="5.10" departSpeed="0.00" departDelay="2.50" arrival="100.00" arrivalLane="-895432952_0" arrivalPos="27.41" arrivalSpeed="10.28" duration="56.00" routeLength="420.23" waitingTime="3.00" waitingCount="1" stopTime="0.00" timeLoss="24.11" rerouteNo="0" devices="tripinfo_veh83" vType="car" speedFactor="1.06" vaporized=""/>
    <tripinfo id="veh112" depart="58.00" departLane="-749959413#3_0" departPos="5.10" departSpeed="0.00" departDelay="2.00" arrival="101.00" arrivalLane="450752220#3_0" arrivalPos="122.23" arrivalSpeed="14.27" duration="43.00" routeLength="526.04" waitingTime="0.00" waitingCount="0" stopTime="0.00" timeLoss="7.61" rerouteNo="0" devices="tripinfo_veh112" vType="car" speedFactor="1.10" vaporized=""/>
    <tripinfo id="veh104" depart="52.00" departLane="-805971869#1_0" departPos="5.10" departSpeed="0.00" departDelay="0.00" arrival="112.00" arrivalLane="-805333889_0" arrivalPos="149.80" arrivalSpeed="12.52" duration="60.00" routeLength="335.61" waitingTime="3.00" waitingCount="1" stopTime="0.00" timeLoss="11.93" rerouteNo="0" devices="tripinfo_veh104" vType="car" speedFactor="0.92" vaporized=""/>
    <tripinfo id="veh203" depart="102.00" departLane="1193733759#1_0" departPos="0.20" departSpeed="0.00" departDelay="0.50" arrival="121.00" arrivalLane="-1305162884_0" arrivalPos="73.29" arrivalSpeed="14.52" duration="19.00" routeLength="168.76" waitingTime="0.00" waitingCount="0" stopTime="0.00" timeLoss="6.27" rerouteNo="0" devices="tripinfo_veh203" vType="car" speedFactor="1.06" vaporized=""/>
    <tripinfo id="veh202" depart="101.00" departLane="-802794948#1_0" departPos="5.10" departSpeed="0.00" departDelay="0.00" arrival="123.00" arrivalLane="1195176490_0" arrivalPos="51.02" arrivalSpeed="14.99" duration="22.00" routeLength="181.80" waitingTime="0.00" waitingCount="0" stopTime="0.00" timeLoss="7.75" rerouteNo="0" devices="tripinfo_veh202" vType="car" speedFactor="1.08" vaporized=""/>
    <tripinfo id="veh182" depart="91.00" departLane="-802794955_0" departPos="5.10" departSpeed="0.00" departDelay="0.00" arrival="131.00" arrivalLane="548373963#1_0" arrivalPos="60.35" arrivalSpeed="16.59" duration="40.00" routeLength="393.27" waitingTime="0.00" waitingCount="0" stopTime="0.00" timeLoss="15.32" rerouteNo="0" devices="tripinfo_veh182" vType="car" speedFactor="0.88" vaporized=""/>
    <tripinfo id="veh176" depart="88.00" departLane="1262877731#2_0" departPos="5.10" departSpeed="0.00" departDelay="0.00" arrival="133.00" arrivalLane="-1195176494_0" arrivalPos="16.05" arrivalSpeed="15.65" duration="45.00" routeLength="402.17" waitingTime="0.00" waitingCount="0" stopTime="0.00" timeLoss="18.22" rerouteNo="0" devices="tripinfo_veh176" vType="car" speedFactor="1.18" vaporized=""/>
    <tripinfo id="veh180" depart="90.00" departLane="1262877732_0" departPos="5.10" departSpeed="0.00" departDelay="0.00" arrival="134.00" arrivalLane="1262877731#0_0" arrivalPos="26.11" arrivalSpeed="12.97" duration="44.00" routeLength="394.09" waitingTime="0.00" waitingCount="0" stopTime="0.00" timeLoss="16.50" rerouteNo="0" devices="tripinfo_veh180" vType="car" speedFactor="1.14" vaporized=""/>
    <tripinfo id="veh140" depart="70.00" departLane="-801397524_0" departPos="5.10" departSpeed="0.00" departDelay="0.00" arrival="137.00" arrivalLane="1364681851#0_1" arrivalPos="5.70" arrivalSpeed="22.85" duration="67.00" routeLength="754.80" waitingTime="0.00" waitingCount="0" stopTime="0.00" timeLoss="16.36" rerouteNo="0" devices="tripinfo_veh140" vType="car" speedFactor="1.03" vaporized=""/>
    <tripinfo id="veh258" depart="129.00" departLane="744240848#0_0" departPos="5.10" departSpeed="0.00" departDelay="0.00" arrival="147.00" arrivalLane="1305162885_0" arrivalPos="33.61" arrivalSpeed="13.05" duration="18.00" routeLength="145.38" waitingTime="0.00" waitingCount="0" stopTime="0.00" timeLoss="6.30" rerouteNo="0" devices="tripinfo_veh258" vType="car" speedFactor="0.99" vaporized=""/>
    <tripinfo id="veh158" depart="79.00" departLane="-1305162886_0" departPos="5.10" departSpeed="0.00" departDelay="0.00" arrival="151.00" arrivalLane="1262877732_0" arrivalPos="40.95" arrivalSpeed="15.39" duration="72.00" routeLength="820.63" waitingTime="0.00" waitingCount="0" stopTime="0.00" timeLoss="17.12" rerouteNo="0" devices="tripinfo_veh158" vType="car" speedFactor="1.11" vaporized=""/>
    <tripinfo id="veh260" depart="130.00" departLane="-1210908131#1_0" departPos="5.10" departSpeed="0.00" departDelay="0.00" arrival="156.00" arrivalLane="1305162884_0" arrivalPos="72.55" arrivalSpeed="14.88" duration="26.00" routeLength="252.14" waitingTime="0.00" waitingCount="0" stopTime="0.00" timeLoss="7.80" rerouteNo="0" devices="tripinfo_veh260" vType="car" speedFactor="1.14" vaporized=""/>
    <tripinfo id="veh120" depart="60.00" departLane="1262877731#1_0" departPos="5.10" departSpeed="0.00" departDelay="0.00" arrival="159.00" arrivalLane="-750356550_0" arrivalPos="77.65" arrivalSpeed="14.26" duration="99.00" routeLength="1021.46" waitingTime="0.00" waitingCount="0" stopTime="0.00" timeLoss="24.71" rerouteNo="0" devices="tripinfo_veh120" vType="car" speedFactor="1.03" vaporized=""/>
    <tripinfo id="veh171" depart="86.00" departLane="-749959413#4_0" departPos="5.10" departSpeed="0.00" departDelay="0.50" arrival="161.00" arrivalLane="450752220#0_0" arrivalPos="115.24" arrivalSpeed="14.53" duration="75.00" routeLength="867.66" waitingTime="0.00" waitingCount="0" stopTime="0.00" timeLoss="14.63" rerouteNo="0" devices="tripinfo_veh171" vType="car" speedFactor="1.07" vaporized=""/>
    <tripinfo id="veh195" depart="100.00" departLane="-1211218982_0" departPos="5.10" departSpeed="0.00" departDelay="2.50" arrival="161.00" arrivalLane="-548373963#0_0" arrivalPos="440.45" arrivalSpeed="23.71" duration="61.00" routeLength="737.17" waitingTime="0.00" waitingCount="0" stopTime="0.00" timeLoss="11.57" rerouteNo="0" devices="tripinfo_veh195" vType="car" speedFactor="0.89" vaporized=""/>
    <tripinfo id="veh55" depart="28.00" departLane="548373963#1_0" departPos="5.10" departSpeed="0.00" departDelay="0.50" arrival="177.00" arrivalLane="1364681849#7_0" arrivalPos="936.95" arrivalSpeed="27.37" duration="149.00" routeLength="1983.73" waitingTime="36.00" waitingCount="1" stopTime="0.00" timeLoss="76.03" rerouteNo="0" devices="tripinfo_veh55" vType="car" speedFactor="1.00" vaporized=""/>
    <tripinfo id="veh268" depart="134.00" departLane="1305162885_0" departPos="5.10" departSpeed="0.00" departDelay="0.00" arrival="177.00" arrivalLane="-749959413#0_0" arrivalPos="77.69" arrivalSpeed="15.36" duration="43.00" routeLength="471.28" waitingTime="0.00" waitingCount="0" stopTime="0.00" timeLoss="10.66" rerouteNo="0" devices="tripinfo_veh268" vType="car" speedFactor="1.13" vaporized=""/>
    <tripinfo id="veh134" depart="67.00" departLane="-450752220#2_0" departPos="5.10" departSpeed="0.00" departDelay="0.00" arrival="179.00" arrivalLane="744528054#0_0" arrivalPos="188.90" arrivalSpeed="14.15" duration="112.00" routeLength="1293.14" waitingTime="0.00" waitingCount="0" stopTime="0.00" timeLoss="23.46" rerouteNo="0" devices="tripinfo_veh134" vType="car" speedFactor="1.10" vaporized=""/>
    <tripinfo id="veh207" depart="104.00" departLane="805333889_0" departPos="5.10" departSpeed="0.00" departDelay="0.50" arrival="188.00" arrivalLane="-548373963#2_0" arrivalPos="28.59" arrivalSpeed="10.28" duration="84.00" routeLength="544.18" waitingTime="2.00" waitingCount="1" stopTime="0.00" timeLoss="25.85" rerouteNo="0" devices="tripinfo_veh207" vType="car" speedFactor="1.08" vaporized=""/>
    <tripinfo id="veh9" depart="5.00" departLane="-1211218242_0" departPos="5.10" departSpeed="0.00" departDelay="0.50" arrival="190.00" arrivalLane="-744528054#1_0" arrivalPos="369.79" arrivalSpeed="12.78" duration="185.00" routeLength="1780.71" waitingTime="2.00" waitingCount="2" stopTime="0.00" timeLoss="49.90" rerouteNo="0" devices="tripinfo_veh9" vType="car" speedFactor="0.94" vaporized=""/>
    <tripinfo id="veh133" depart="67.00" departLane="1364681849#3_0" departPos="5.10" departSpeed="0.00" departDelay="0.50" arrival="191.00" arrivalLane="548373950#3_0" arrivalPos="79.99" arrivalSpeed="12.26" duration="124.00" routeLength="449.20" waitingTime="85.00" waitingCount="2" stopTime="0.00" timeLoss="100.73" rerouteNo="0" devices="tripinfo_veh133" vType="car" speedFactor="0.94" vaporized=""/>
    <tripinfo id="veh295" depart="148.00" departLane="901028067#0_0" departPos="0.56" departSpeed="0.00" departDelay="0.50" arrival="196.00" arrivalLane="744528054#1_0" arrivalPos="369.28" arrivalSpeed="14.46" duration="48.00" routeLength="581.19" waitingTime="2.00" waitingCount="1" stopTime="0.00" timeLoss="6.36" rerouteNo="0" devices="tripinfo_veh295" vType="car" speedFactor="1.04" vaporized=""/>
    <tripinfo id="veh364" depart="182.00" departLane="-746528092#2_0" departPos="5.10" departSpeed="0.00" departDelay="0.00" arrival="196.00" arrivalLane="-746528092#0_0" arrivalPos="26.38" arrivalSpeed="11.76" duration="14.00" routeLength="110.53" waitingTime="0.00" waitingCount="0" stopTime="0.00" timeLoss="3.95" rerouteNo="0" devices="tripinfo_veh364" vType="car" speedFactor="0.87" vaporized=""/>
    <tripinfo id="veh270" depart="135.00" departLane="805971869#2_0" departPos="5.10" departSpeed="0.00" departDelay="0.00" arrival="200.00" arrivalLane="805333889_0" arrivalPos="145.25" arrivalSpeed="13.76" duration="65.00" routeLength="543.07" waitingTime="0.00" waitingCount="0" stopTime="0.00" timeLoss="13.59" rerouteNo="0" devices="tripinfo_veh270" vType="car" speedFactor="1.01" vaporized=""/>
    <tripinfo id="veh254" depart="127.00" departLane="-450752220#3_0" departPos="5.10" departSpeed="0.00" departDelay="0.00" arrival="201.00" arrivalLane="802794948#1_0" arrivalPos="72.99" arrivalSpeed="12.98" duration="74.00" routeLength="588.24" waitingTime="15.00" waitingCount="1" stopTime="0.00" timeLoss="28.65" rerouteNo="0" devices="tripinfo_veh254" vType="car" speedFactor="0.97" vaporized=""/>
    <tripinfo id="veh277" depart="139.00" departLane="-746528092#0_0" departPos="5.10" departSpeed="0.00" departDelay="0.50" arrival="201.00" arrivalLane="749959413#4_0" arrivalPos="63.55" arrivalSpeed="14.99" duration="62.00" routeLength="504.40" waitingTime="9.00" waitingCount="1" stopTime="0.00" timeLoss="28.45" rerouteNo="0" devices="tripinfo_veh277" vType="car" speedFactor="1.14" vaporized=""/>
    <tripinfo id="veh161" depart="81.00" departLane="901028067#2_0" departPos="5.10" departSpeed="0.00" departDelay="0.50" arrival="205.00" arrivalLane="744238099#1_0" arrivalPos="46.85" arrivalSpeed="24.85" duration="124.00" routeLength="865.59" waitingTime="39.00" waitingCount="5" stopTime="0.00" timeLoss="89.09" rerouteNo="0" devices="tripinfo_veh161" vType="car" speedFactor="1.13" vaporized=""/>
    <tripinfo id="veh294" depart="147.00" departLane="-1262877731#1_0" departPos="5.10" departSpeed="0.00" departDelay="0.00" arrival="205.00" arrivalLane="746528091_0" arrivalPos="109.73" arrivalSpeed="14.45" duration="58.00" routeLength="577.17" waitingTime="0.00" waitingCount="0" stopTime="0.00" timeLoss="18.63" rerouteNo="0" devices="tripinfo_veh294" vType="car" speedFactor="1.13" vaporized=""/>
    <tripinfo id="veh186" depart="94.00" departLane="749959413#4_0" departPos="5.10" departSpeed="0.00" departDelay="1.00" arrival="206.00" arrivalLane="-802794959_0" arrivalPos="169.12" arrivalSpeed="13.80" duration="112.00" routeLength="1019.90" waitingTime="19.00" waitingCount="1" stopTime="0.00" timeLoss="39.36" rerouteNo="0" devices="tripinfo_veh186" vType="car" speedFactor="1.05" vaporized=""/>
    <tripinfo id="veh172" depart="86.00" departLane="763017695#1_0" departPos="5.10" departSpeed="0.00" departDelay="0.00" arrival="209.00" arrivalLane="1111261524_0" arrivalPos="62.16" arrivalSpeed="12.12" duration="123.00" routeLength="735.46" waitingTime="4.00" waitingCount="1" stopTime="0.00" timeLoss="29.98" rerouteNo="0" devices="tripinfo_veh172" vType="car" speedFactor="0.93" vaporized=""/>
    <tripinfo id="veh291" depart="146.00" departLane="1364681851#2_0" departPos="5.10" departSpeed="0.00" departDelay="0.50" arrival="215.00" arrivalLane="801397524_0" arrivalPos="273.12" arrivalSpeed="10.99" duration="69.00" routeLength="548.68" waitingTime="1.00" waitingCount="1" stopTime="0.00" timeLoss="22.86" rerouteNo="0" devices="tripinfo_veh291" vType="car" speedFactor="0.84" vaporized=""/>
    <tripinfo id="veh375" depart="188.00" departLane="749999921#0_0" departPos="5.10" departSpeed="0.00" departDelay="0.50" arrival="218.00" arrivalLane="-749999920#1_0" arrivalPos="50.72" arrivalSpeed="12.05" duration="30.00" routeLength="257.70" waitingTime="0.00" waitingCount="0" stopTime="0.00" timeLoss="7.64" rerouteNo="0" devices="tripinfo_veh375" vType="car" speedFactor="0.90" vaporized=""/>
    <tripinfo id="veh377" depart="189.00" departLane="901028067#1_0" departPos="5.10" departSpeed="0.00" departDelay="0.50" arrival="224.00" arrivalLane="801397525_0" arrivalPos="64.03" arrivalSpeed="13.29" duration="35.00" routeLength="347.60" waitingTime="0.00" waitingCount="0" stopTime="0.00" timeLoss="14.12" rerouteNo="0" devices="tripinfo_veh377" vType="car" speedFactor="1.02" vaporized=""/>
    <tripinfo id="veh340" depart="170.00" departLane="-802794953_0" departPos="5.10" departSpeed="0.00" departDelay="0.00" arrival="231.00" arrivalLane="1195176490_0" arrivalPos="51.02" arrivalSpeed="13.36" duration="61.00" routeLength="559.90" waitingTime="0.00" waitingCount="0" stopTime="0.00" timeLoss="15.19" rerouteNo="0" devices="tripinfo_veh340" vType="car" speedFactor="0.98" vaporized=""/>
    <tripinfo id="veh440" depart="220.00" departLane="1262877732_0" departPos="5.10" departSpeed="0.00" departDelay="0.00" arrival="238.00" arrivalLane="-1262877731#2_0" arrivalPos="41.23" arrivalSpeed="11.82" duration="18.00" routeLength="122.80" waitingTime="0.00" waitingCount="0" stopTime="0.00" timeLoss="6.69" rerouteNo="0" devices="tripinfo_veh440" vType="car" speedFactor="0.93" vaporized=""/>
    <tripinfo id="veh412" depart="206.00" departLane="1262877731#2_0" departPos="5.10" departSpeed="0.00" departDelay="0.00" arrival="239.00" arrivalLane="1195176494_0" arrivalPos="16.05" arrivalSpeed="7.87" duration="33.00" routeLength="266.15" waitingTime="0.00" waitingCount="0" stopTime="0.00" timeLoss="10.13" rerouteNo="0" devices="tripinfo_veh412" vType="car" speedFactor="0.90" vaporized=""/>
    <tripinfo id="veh304" depart="152.00" departLane="744528054#1_0" departPos="5.10" departSpeed="0.00" departDelay="0.00" arrival="241.00" arrivalLane="-744528054#0_0" arrivalPos="193.61" arrivalSpeed="10.81" duration="89.00" routeLength="946.95" waitingTime="0.00" waitingCount="0" stopTime="0.00" timeLoss="9.47" rerouteNo="0" devices="tripinfo_veh304" vType="car" speedFactor="0.87" vaporized=""/>
    <tripinfo id="veh403" depart="202.00" departLane="-802794948#1_0" departPos="5.10" departSpeed="0.00" departDelay="0.50" arrival="244.00" arrivalLane="-802794950_0" arrivalPos="56.66" arrivalSpeed="13.47" duration="42.00" routeLength="342.00" waitingTime="0.00" waitingCount="0" stopTime="0.00" timeLoss="14.38" rerouteNo="0" devices="tripinfo_veh403" vType="car" speedFactor="0.98" vaporized=""/>
    <tripinfo id="veh342" depart="171.00" departLane="802794949_0" departPos="5.10" departSpeed="0.00" departDelay="0.00" arrival="245.00" arrivalLane="744240848#0_0" arrivalPos="24.74" arrivalSpeed="9.58" duration="74.00" routeLength="741.15" waitingTime="0.00" waitingCount="0" stopTime="0.00" timeLoss="17.52" rerouteNo="0" devices="tripinfo_veh342" vType="car" speedFactor="0.98" vaporized=""/>
    <tripinfo id="veh396" depart="207.00" departLane="1210908131#0_0" departPos="5.10" departSpeed="0.00" departDelay="9.00" arrival="253.00" arrivalLane="1305162882_0" arrivalPos="81.83" arrivalSpeed="11.31" duration="46.00" routeLength="646.45" waitingTime="0.00" waitingCount="0" stopTime="0.00" timeLoss="10.42" rerouteNo="0" devices="tripinfo_veh396" vType="car" speedFactor="0.82" vaporized=""/>
    <tripinfo id="veh310" depart="155.00" departLane="159463136#2_0" departPos="5.10" departSpeed="0.00" departDelay="0.00" arrival="257.00" arrivalLane="-744238099#0_0" arrivalPos="86.00" arrivalSpeed="18.22" duration="102.00" routeLength="585.20" waitingTime="38.00" waitingCount="2" stopTime="0.00" timeLoss="70.16" rerouteNo="0" devices="tripinfo_veh310" vType="car" speedFactor="0.87" vaporized=""/>
    <tripinfo id="veh385" depart="193.00" departLane="-802794946#0_0" departPos="5.10" departSpeed="0.00" departDelay="0.50" arrival="262.00" arrivalLane="-450752220#1_0" arrivalPos="13.84" arrivalSpeed="8.26" duration="69.00" routeLength="518.91" waitingTime="5.00" waitingCount="2" stopTime="0.00" timeLoss="34.96" rerouteNo="0" devices="tripinfo_veh385" vType="car" speedFactor="1.16" vaporized=""/>
    <tripinfo id="veh487" depart="244.00" departLane="1193733759#3_0" departPos="5.10" departSpeed="0.00" departDelay="0.50" arrival="269.00" arrivalLane="1305162883_0" arrivalPos="72.36" arrivalSpeed="13.49" duration="25.00" routeLength="213.24" waitingTime="0.00" waitingCount="0" stopTime="0.00" timeLoss="8.64" rerouteNo="0" devices="tripinfo_veh487" vType="car" speedFactor="1.05" vaporized=""/>
    <tripinfo id="veh297" depart="149.00" departLane="-804889483_0" departPos="5.10" departSpeed="0.00" departDelay="0.50" arrival="276.00" arrivalLane="744238099#2_0" arrivalPos="17.22" arrivalSpeed="25.03" duration="127.00" routeLength="1336.25" waitingTime="21.00" waitingCount="1" stopTime="0.00" timeLoss="52.55" rerouteNo="0" devices="tripinfo_veh297" vType="car" speedFactor="1.13" vaporized=""/>
    <tripinfo id="veh538" depart="269.00" departLane="-802000252#5_0" departPos="5.10" departSpeed="0.00" departDelay="0.00" arrival="285.00" arrivalLane="-1047765852#0_0" arrivalPos="18.17" arrivalSpeed="10.25" duration="16.00" routeLength="140.40" waitingTime="0.00" waitingCount="0" stopTime="0.00" timeLoss="4.99" rerouteNo="0" devices="tripinfo_veh538" vType="car" speedFactor="1.04" vaporized=""/>
    <tripinfo id="veh553" depart="277.00" departLane="749999920#0_0" departPos="5.10" departSpeed="0.00" departDelay="0.50" arrival="291.00" arrivalLane="749999920#1_0" arrivalPos="50.72" arrivalSpeed="13.81" duration="14.00" routeLength="111.06" waitingTime="0.00" waitingCount="0" stopTime="0.00" timeLoss="5.71" rerouteNo="0" devices="tripinfo_veh553" vType="car" speedFactor="1.09" vaporized=""/>
    <tripinfo id="veh473" depart="237.00" departLane="-805971869#3_0" departPos="5.10" departSpeed="0.00" departDelay="0.50" arrival="294.00" arrivalLane="-805333889_0" arrivalPos="149.80" arrivalSpeed="14.36" duration="57.00" routeLength="406.48" waitingTime="0.00" waitingCount="0" stopTime="0.00" timeLoss="7.15" rerouteNo="0" devices="tripinfo_veh473" vType="car" speedFactor="1.13" vaporized=""/>
    <tripinfo id="veh37" depart="19.00" departLane="-548373963#2_0" departPos="5.10" departSpeed="0.00" departDelay="0.50" arrival="301.00" arrivalLane="548373993#3_0" arrivalPos="992.61" arrivalSpeed="15.85" duration="282.00" routeLength="3815.20" waitingTime="4.00" waitingCount="1" stopTime="0.00" timeLoss="32.49" rerouteNo="0" devices="tripinfo_veh37" vType="car" speedFactor="1.15" vaporized=""/>
    <tripinfo id="veh348" depart="174.00" departLane="-802794946#0_0" departPos="5.10" departSpeed="0.00" departDelay="0.00" arrival="306.00" arrivalLane="-744240848#1_0" arrivalPos="98.33" arrivalSpeed="12.45" duration="132.00" routeLength="1332.13" waitingTime="2.00" waitingCount="1" stopTime="0.00" timeLoss="30.67" rerouteNo="0" devices="tripinfo_veh348" vType="car" speedFactor="0.99" vaporized=""/>
    <tripinfo id="veh560" depart="280.00" departLane="1211177868_0" departPos="5.10" departSpeed="0.00" departDelay="0.00" arrival="307.00" arrivalLane="-649120019#1_0" arrivalPos="69.62" arrivalSpeed="11.75" duration="27.00" routeLength="195.33" waitingTime="0.00" waitingCount="0" stopTime="0.00" timeLoss="7.83" rerouteNo="0" devices="tripinfo_veh560" vType="car" speedFactor="0.85" vaporized=""/>
    <tripinfo id="veh10" depart="5.00" departLane="1262877731#2_0" departPos="5.10" departSpeed="0.00" departDelay="0.00" arrival="308.00" arrivalLane="1195269934_0" arrivalPos="203.27" arrivalSpeed="11.71" duration="303.00" routeLength="1822.19" waitingTime="77.00" waitingCount="5" stopTime="0.00" timeLoss="158.66" rerouteNo="0" devices="tripinfo_veh10" vType="car" speedFactor="0.86" vaporized=""/>
    <tripinfo id="veh591" depart="296.00" departLane="-895432952_0" departPos="5.10" departSpeed="0.00" departDelay="0.50" arrival="322.00" arrivalLane="745527904#0_0" arrivalPos="72.59" arrivalSpeed="12.65" duration="26.00" routeLength="203.41" waitingTime="0.00" waitingCount="0" stopTime="0.00" timeLoss="8.96" rerouteNo="0" devices="tripinfo_veh591" vType="car" speedFactor="0.98" vaporized=""/>
    <tripinfo id="veh13" depart="7.00" departLane="749999921#0_0" departPos="5.10" departSpeed="0.00" departDelay="0.50" arrival="326.00" arrivalLane="548373993#3_0" arrivalPos="992.61" arrivalSpeed="14.22" duration="319.00" routeLength="4079.96" waitingTime="1.00" waitingCount="1" stopTime="0.00" timeLoss="32.67" rerouteNo="0" devices="tripinfo_veh13" vType="car" speedFactor="1.03" vaporized=""/>
    <tripinfo id="veh638" depart="319.00" departLane="-1262877731#2_0" departPos="5.10" departSpeed="0.00" departDelay="0.00" arrival="343.00" arrivalLane="802794948#0_0" arrivalPos="30.29" arrivalSpeed="11.72" duration="24.00" routeLength="169.84" waitingTime="0.00" waitingCount="0" stopTime="0.00" timeLoss="6.94" rerouteNo="0" devices="tripinfo_veh638" vType="car" speedFactor="0.86" vaporized=""/>
    <tripinfo id="veh676" depart="338.00" departLane="-1193733759#2_0" departPos="5.10" departSpeed="0.00" departDelay="0.00" arrival="351.00" arrivalLane="1193733759#3_0" arrivalPos="50.60" arrivalSpeed="13.44" duration="13.00" routeLength="95.69" waitingTime="0.00" waitingCount="0" stopTime="0.00" timeLoss="4.98" rerouteNo="0" devices="tripinfo_veh676" vType="car" speedFactor="1.05" vaporized=""/>
    <tripinfo id="veh282" depart="141.00" departLane="-1211177868_0" departPos="5.10" departSpeed="0.00" departDelay="0.00" arrival="365.00" arrivalLane="-159463136#0_0" arrivalPos="1993.85" arrivalSpeed="21.89" duration="224.00" routeLength="3142.39" waitingTime="26.00" waitingCount="1" stopTime="0.00" timeLoss="58.94" rerouteNo="0" devices="tripinfo_veh282" vType="car" speedFactor="0.99" vaporized=""/>
    <tripinfo id="veh709" depart="355.00" departLane="-746528092#1_0" departPos="5.10" departSpeed="0.00" departDelay="0.50" arrival="371.00" arrivalLane="-746528091_0" arrivalPos="109.67" arrivalSpeed="13.14" duration="16.00" routeLength="149.57" waitingTime="0.00" waitingCount="0" stopTime="0.00" timeLoss="5.12" rerouteNo="0" devices="tripinfo_veh709" vType="car" speedFactor="1.03" vaporized=""/>