<?xml version="1.0" encoding="UTF-8"?>

<!-- generated on 2026-03-15 22:49:23 by Eclipse SUMO sumo Version 1.24.0
<sumoConfiguration xmlns:xsi="http://www.w3.org/2001/XMLSchema-instance" xsi:noNamespaceSchemaLocation="http://sumo.dlr.de/xsd/sumoConfiguration.xsd">

    <input>
        <net-file value="map.net.xml"/>
        <route-files value="simulation.rou.xml"/>
    </input>

    <output>
        <tripinfo-output value="tripinfo_old.xml"/>
    </output>

    <report>
        <duration-log.statistics value="true"/>
    </report>

</sumoConfiguration>
-->

<tripinfos xmlns:xsi="http://www.w3.org/2001/XMLSchema-instance" xsi:noNamespaceSchemaLocation="http://sumo.dlr.de/xsd/tripinfo_file.xsd">
    <tripinfo id="veh12" depart="6.00" departLane="-450752220#4_0" departPos="5.10" departSpeed="0.00" departDelay="0.00" arrival="48.00" arrivalLane="1262877731#1_0" arrivalPos="28.28" arrivalSpeed="14.50" duration="42.00" routeLength="425.56" waitingTime="0.00" waitingCount="0" stopTime="0.00" timeLoss="11.26" rerouteNo="0" devices="tripinfo_veh12" vType="car" speedFactor="1.05" vaporized=""/>
    <tripinfo id="veh47" depart="24.00" departLane="-802794948#1_0" departPos="5.10" departSpeed="0.00" departDelay="0.50" arrival="48.00" arrivalLane="-1195177019#0_0" arrivalPos="0.20" arrivalSpeed="13.84" duration="24.00" routeLength="210.02" waitingTime="0.00" waitingCount="0" stopTime="0.00" timeLoss="8.70" rerouteNo="0" devices="tripinfo_veh47" vType="car" speedFactor="1.09" vaporized=""/>
    <tripinfo id="veh50" depart="25.00" departLane="450752220#2_0" departPos="5.10" departSpeed="0.00" departDelay="0.00" arrival="55.00" arrivalLane="802794960#2_0" arrivalPos="17.92" arrivalSpeed="8.31" duration="30.00" routeLength="254.72" waitingTime="0.00" waitingCount="0" stopTime="0.00" timeLoss="7.12" rerouteNo="0" devices="tripinfo_veh50" vType="car" speedFactor="0.90" vaporized=""/>
    <tripinfo id="veh41" depart="21.00" departLane="-802000252#1_0" departPos="5.10" departSpeed="0.00" departDelay="0.50" arrival="59.00" arrivalLane="802794960#1_0" arrivalPos="97.85" arrivalSpeed="14.04" duration="38.00" routeLength="418.77" waitingTime="0.00" waitingCount="0" stopTime="0.00" timeLoss="7.10" rerouteNo="0" devices="tripinfo_veh41" vType="car" speedFactor="1.03" vaporized=""/>
    <tripinfo id="veh82" depart="46.00" departLane="-742739229#1_0" departPos="5.10" departSpeed="0.00" departDelay="5.00" arrival="59.00" arrivalLane="-1305162889_0" arrivalPos="48.42" arrivalSpeed="13.54" duration="13.00" routeLength="78.04" waitingTime="0.00" waitingCount="0" stopTime="0.00" timeLoss="5.13" rerouteNo="0" devices="tripinfo_veh82" vType="car" speedFactor="0.98" vaporized=""/>
    <tripinfo id="veh0" depart="0.00" departLane="-470866144#4_0" departPos="0.20" departSpeed="0.00" departDelay="0.00" arrival="60.00" arrivalLane="802794963_0" arrivalPos="65.63" arrivalSpeed="13.59" duration="60.00" routeLength="706.17" waitingTime="0.00" waitingCount="0" stopTime="0.00" timeLoss="9.12" rerouteNo="0" devices="tripinfo_veh0" vType="car" speedFactor="1.06" vaporized=""/>
    <tripinfo id="veh35" depart="18.00" departLane="-1211187479_0" departPos="5.10" departSpeed="0.00" departDelay="0.50" arrival="60.00" arrivalLane="-749702421_0" arrivalPos="71.02" arrivalSpeed="13.24" duration="42.00" routeLength="369.71" waitingTime="0.00" waitingCount="0" stopTime="0.00" timeLoss="12.50" rerouteNo="0" devices="tripinfo_veh35" vType="car" speedFactor="0.99" vaporized=""/>
    <tripinfo id="veh38" depart="19.00" departLane="-450752220#0_0" departPos="5.10" departSpeed="0.00" departDelay="0.00" arrival="61.00" arrivalLane="802794948#1_0" arrivalPos="50.91" arrivalSpeed="15.64" duration="42.00" routeLength="354.76" waitingTime="1.00" waitingCount="1" stopTime="0.00" timeLoss="18.10" rerouteNo="0" devices="tripinfo_veh38" vType="car" speedFactor="1.18" vaporized=""/>
    <tripinfo id="veh100" depart="50.00" departLane="1262877731#0_0" departPos="5.10" departSpeed="0.00" departDelay="0.00" arrival="72.00" arrivalLane="802794948#1_0" arrivalPos="50.91" arrivalSpeed="10.59" duration="22.00" routeLength="190.96" waitingTime="0.00" waitingCount="0" stopTime="0.00" timeLoss="3.78" rerouteNo="0" devices="tripinfo_veh100" vType="car" speedFactor="0.83" vaporized=""/>
    <tripinfo id="veh45" depart="23.00" departLane="895443202_0" departPos="5.10" departSpeed="0.00" departDelay="0.50" arrival="73.00" arrivalLane="-749999919#0_0" arrivalPos="29.90" arrivalSpeed="11.65" duration="50.00" routeLength="412.37" waitingTime="0.00" waitingCount="0" stopTime="0.00" timeLoss="20.75" rerouteNo="0" devices="tripinfo_veh45" vType="car" speedFactor="1.04" vaporized=""/>
    <tripinfo id="veh113" depart="57.00" departLane="-1195176490_0" departPos="5.10" departSpeed="0.00" departDelay="0.50" arrival="73.00" arrivalLane="-1262877731#0_0" arrivalPos="22.79" arrivalSpeed="12.15" duration="16.00" routeLength="117.04" waitingTime="0.00" waitingCount="0" stopTime="0.00" timeLoss="5.51" rerouteNo="0" devices="tripinfo_veh113" vType="car" speedFactor="0.89" vaporized=""/>
    <tripinfo id="veh44" depart="22.00" departLane="-747167370_0" departPos="5.10" departSpeed="0.00" departDelay="0.00" arrival="77.00" arrivalLane="548373993#0_1" arrivalPos="111.01" arrivalSpeed="13.40" duration="55.00" routeLength="549.20" waitingTime="0.00" waitingCount="0" stopTime="0.00" timeLoss="14.91" rerouteNo="0" devices="tripinfo_veh44" vType="car" speedFactor="1.04" vaporized=""/>
    <tripinfo id="veh26" depart="13.00" departLane="802794961#0_0" departPos="5.10" departSpeed="0.00" departDelay="0.00" arrival="81.00" arrivalLane="-802794960#1_0" arrivalPos="98.11" arrivalSpeed="11.26" duration="68.00" routeLength="599.13" waitingTime="0.00" waitingCount="0" stopTime="0.00" timeLoss="14.13" rerouteNo="0" devices="tripinfo_veh26" vType="car" speedFactor="0.87" vaporized=""/>
    <tripinfo id="veh102" depart="51.00" departLane="1177215277_0" departPos="5.10" departSpeed="0.00" departDelay="0.00" arrival="83.00" arrivalLane="1210908131#6_0" arrivalPos="38.07" arrivalSpeed="13.70" duration="32.00" routeLength="335.39" waitingTime="1.00" waitingCount="1" stopTime="0.00" timeLoss="19.21" rerouteNo="0" devices="tripinfo_veh102" vType="car" speedFactor="1.09" vaporized=""/>
    <tripinfo id="veh28" depart="14.00" departLane="745188104#1_0" departPos="5.10" departSpeed="0.00" departDelay="0.00" arrival="84.00" arrivalLane="749392248#1_0" arrivalPos="44.39" arrivalSpeed="12.80" duration="70.00" routeLength="700.64" waitingTime="0.00" waitingCount="0" stopTime="0.00" timeLoss="19.44" rerouteNo="0" devices="tripinfo_veh28" vType="car" speedFactor="0.95" vaporized=""/>
    <tripinfo id="veh8" depart="4.00" departLane="802000252#5_0" departPos="5.10" departSpeed="0.00" departDelay="0.00" arrival="85.00" arrivalLane="-802794959#0_0" arrivalPos="33.08" arrivalSpeed="4.32" duration="81.00" routeLength="723.76" waitingTime="4.00" waitingCount="2" stopTime="0.00" timeLoss="23.10" rerouteNo="0" devices="tripinfo_veh8" vType="car" speedFactor="0.94" vaporized=""/>
    <tripinfo id="veh36" depart="18.00" departLane="-1218568800_0" departPos="5.10" departSpeed="0.00" departDelay="0.00" arrival="88.00" arrivalLane="-744528054#0_0" arrivalPos="193.02" arrivalSpeed="13.64" duration="70.00" routeLength="679.70" waitingTime="0.00" waitingCount="0" stopTime="0.00" timeLoss="18.85" rerouteNo="0" devices="tripinfo_veh36" vType="car" speedFactor="1.02" vaporized=""/>
    <tripinfo id="veh95" depart="48.00" departLane="470866144#3_0" departPos="5.10" departSpeed="0.00" departDelay="0.50" arrival="89.00" arrivalLane="-763019925#2_0" arrivalPos="104.06" arrivalSpeed="5.25" duration="41.00" routeLength="272.48" waitingTime="0.00" waitingCount="0" stopTime="0.00" timeLoss="9.02" rerouteNo="0" devices="tripinfo_veh95" vType="car" speedFactor="1.04" vaporized=""/>
    <tripinfo id="veh80" depart="42.00" departLane="-1211182611#1_0" departPos="5.10" departSpeed="0.00" departDelay="2.00" arrival="92.00" arrivalLane="-749392248#1_0" arrivalPos="44.39" arrivalSpeed="14.21" duration="50.00" routeLength="418.08" waitingTime="0.00" waitingCount="0" stopTime="0.00" timeLoss="17.13" rerouteNo="0" devices="tripinfo_veh80" vType="car" speedFactor="1.06" vaporized=""/>
    <tripinfo id="veh48" depart="24.00" departLane="763019925#1_0" departPos="5.10" departSpeed="0.00" departDelay="0.00" arrival="99.00" arrivalLane="-1211220654_0" arrivalPos="60.60" arrivalSpeed="13.64" duration="75.00" routeLength="584.50" waitingTime="0.00" waitingCount="0" stopTime="0.00" timeLoss="12.14" rerouteNo="0" devices="tripinfo_veh48" vType="car" speedFactor="1.00" vaporized=""/>
    <tripinfo id="veh53" depart="27.00" departLane="-749999919#0_0" departPos="5.10" departSpeed="0.00" departDelay="0.50" arrival="101.00" arrivalLane="548373993#1_0" arrivalPos="0.20" arrivalSpeed="7.66" duration="74.00" routeLength="699.57" waitingTime="0.00" waitingCount="0" stopTime="0.00" timeLoss="15.38" rerouteNo="0" devices="tripinfo_veh53" vType="car" speedFactor="0.85" vaporized=""/>
    <tripinfo id="veh130" depart="65.00" departLane="1211220654_0" departPos="5.10" departSpeed="0.00" departDelay="0.00" arrival="101.00" arrivalLane="470866144#3_0" arrivalPos="21.24" arrivalSpeed="11.38" duration="36.00" routeLength="312.96" waitingTime="0.00" waitingCount="0" stopTime="0.00" timeLoss="13.09" rerouteNo="0" devices="tripinfo_veh130" vType="car" speedFactor="1.10" vaporized=""/>
    <tripinfo id="veh121" depart="61.00" departLane="-763019925#0_0" departPos="5.10" departSpeed="0.00" departDelay="0.50" arrival="103.00" arrivalLane="802794968#0_0" arrivalPos="82.81" arrivalSpeed="14.97" duration="42.00" routeLength="340.18" waitingTime="4.00" waitingCount="1" stopTime="0.00" timeLoss="13.19" rerouteNo="0" devices="tripinfo_veh121" vType="car" speedFactor="1.10" vaporized=""/>
    <tripinfo id="veh135" depart="70.00" departLane="805333890#1_0" departPos="1.40" departSpeed="0.00" departDelay="2.50" arrival="105.00" arrivalLane="-548373963#3_0" arrivalPos="0.20" arrivalSpeed="13.97" duration="35.00" routeLength="185.65" waitingTime="7.00" waitingCount="1" stopTime="0.00" timeLoss="22.50" rerouteNo="0" devices="tripinfo_veh135" vType="car" speedFactor="1.03" vaporized=""/>
    <tripinfo id="veh19" depart="10.00" departLane="1364681851#2_0" departPos="5.10" departSpeed="0.00" departDelay="0.50" arrival="106.00" arrivalLane="450752220#0_0" arrivalPos="46.22" arrivalSpeed="12.44" duration="96.00" routeLength="941.60" waitingTime="0.00" waitingCount="0" stopTime="0.00" timeLoss="20.87" rerouteNo="0" devices="tripinfo_veh19" vType="car" speedFactor="0.94" vaporized=""/>
    <tripinfo id="veh63" depart="32.00" departLane="-1211203284_0" departPos="5.10" departSpeed="0.00" departDelay="0.50" arrival="106.00" arrivalLane="-746528091_0" arrivalPos="109.68" arrivalSpeed="12.93" duration="74.00" routeLength="564.15" waitingTime="11.00" waitingCount="1" stopTime="0.00" timeLoss="27.70" rerouteNo="0" devices="tripinfo_veh63" vType="car" speedFactor="0.97" vaporized=""/>
    <tripinfo id="veh18" depart="9.00" departLane="807994455#0_0" departPos="5.10" departSpeed="0.00" departDelay="0.00" arrival="107.00" arrivalLane="901028067#2_1" arrivalPos="110.87" arrivalSpeed="23.10" duration="98.00" routeLength="1078.40" waitingTime="0.00" waitingCount="0" stopTime="0.00" timeLoss="16.67" rerouteNo="0" devices="tripinfo_veh18" vType="car" speedFactor="0.94" vaporized=""/>
    <tripinfo id="veh87" depart="44.00" departLane="-1195177019#0_0" departPos="0.20" departSpeed="0.00" departDelay="0.50" arrival="109.00" arrivalLane="1210908131#3_0" arrivalPos="0.18" arrivalSpeed="20.90" duration="65.00" routeLength="633.16" waitingTime="1.00" waitingCount="1" stopTime="0.00" timeLoss="24.15" rerouteNo="0" devices="tripinfo_veh87" vType="car" speedFactor="1.09" vaporized=""/>
    <tripinfo id="veh141" depart="71.00" departLane="-1210908131#8_0" departPos="0.20" departSpeed="0.00" departDelay="0.50" arrival="110.00" arrivalLane="1305162883_0" arrivalPos="72.35" arrivalSpeed="12.66" duration="39.00" routeLength="251.50" waitingTime="1.00" waitingCount="1" stopTime="0.00" timeLoss="16.56" rerouteNo="0" devices="tripinfo_veh141" vType="car" speedFactor="0.96" vaporized=""/>
    <tripinfo id="veh29" depart="15.00" departLane="-802794950_0" departPos="5.10" departSpeed="0.00" departDelay="0.50" arrival="112.00" arrivalLane="742739229#0_0" arrivalPos="31.82" arrivalSpeed="14.63" duration="97.00" routeLength="533.15" waitingTime="33.00" waitingCount="1" stopTime="0.00" timeLoss="59.49" rerouteNo="0" devices="tripinfo_veh29" vType="car" speedFactor="1.13" vaporized=""/>
    <tripinfo id="veh68" depart="34.00" departLane="800108286_0" departPos="5.10" departSpeed="0.00" departDelay="0.00" arrival="113.00" arrivalLane="901028067#0_0" arrivalPos="0.57" arrivalSpeed="14.47" duration="79.00" routeLength="648.35" waitingTime="0.00" waitingCount="0" stopTime="0.00" timeLoss="23.99" rerouteNo="0" devices="tripinfo_veh68" vType="car" speedFactor="0.94" vaporized=""/>
    <tripinfo id="veh9" depart="5.00" departLane="-802794948#1_0" departPos="5.10" departSpeed="0.00" departDelay="0.50" arrival="115.00" arrivalLane="-1305162884_0" arrivalPos="73.29" arrivalSpeed="11.57" duration="110.00" routeLength="1031.33" waitingTime="0.00" waitingCount="0" stopTime="0.00" timeLoss="25.20" rerouteNo="0" devices="tripinfo_veh9" vType="car" speedFactor="0.86" vaporized=""/>
    <tripinfo id="veh14" depart="7.00" departLane="1364681849#5_0" departPos="5.10" departSpeed="0.00" departDelay="0.00" arrival="116.00" arrivalLane="1195176789_0" arrivalPos="21.89" arrivalSpeed="13.60" duration="109.00" routeLength="1135.27" waitingTime="15.00" waitingCount="2" stopTime="0.00" timeLoss="46.51" rerouteNo="0" devices="tripinfo_veh14" vType="car" speedFactor="1.12" vaporized=""/>
    <tripinfo id="veh54" depart="27.00" departLane="802000252#3_0" departPos="5.10" departSpeed="0.00" departDelay="0.00" arrival="116.00" arrivalLane="-1210908131#3_0" arrivalPos="0.18" arrivalSpeed="25.56" duration="89.00" routeLength="1048.77" waitingTime="16.00" waitingCount="1" stopTime="0.00" timeLoss="49.66" rerouteNo="0" devices="tripinfo_veh54" vType="car" speedFactor="1.17" vaporized=""/>
    <tripinfo id="veh216" depart="108.00" departLane="802794946#2_0" departPos="5.10" departSpeed="0.00" departDelay="0.00" arrival="118.00" arrivalLane="-1262877731#0_0" arrivalPos="22.79" arrivalSpeed="10.90" duration="10.00" routeLength="64.72" waitingTime="0.00" waitingCount="0" stopTime="0.00" timeLoss="4.61" rerouteNo="0" devices="tripinfo_veh216" vType="car" speedFactor="1.07" vaporized=""/>
    <tripinfo id="veh4" depart="2.00" departLane="-895443202_0" departPos="5.10" departSpeed="0.00" departDelay="0.00" arrival="120.00" arrivalLane="1193733759#1_0" arrivalPos="0.20" arrivalSpeed="8.79" duration="118.00" routeLength="1104.26" waitingTime="38.00" waitingCount="1" stopTime="0.00" timeLoss="67.16" rerouteNo="0" devices="tripinfo_veh4" vType="car" speedFactor="1.03" vaporized=""/>
    <tripinfo id="veh206" depart="105.00" departLane="1305162882_0" departPos="5.10" departSpeed="0.00" departDelay="2.00" arrival="122.00" arrivalLane="1193733759#3_0" arrivalPos="50.60" arrivalSpeed="13.59" duration="17.00" routeLength="137.55" waitingTime="0.00" waitingCount="0" stopTime="0.00" timeLoss="5.33" rerouteNo="0" devices="tripinfo_veh206" vType="car" speedFactor="1.00" vaporized=""/>
    <tripinfo id="veh3" depart="2.00" departLane="746528092#3_0" departPos="5.10" departSpeed="0.00" departDelay="0.50" arrival="123.00" arrivalLane="-800108281_0" arrivalPos="78.98" arrivalSpeed="13.95" duration="121.00" routeLength="944.04" waitingTime="32.00" waitingCount="1" stopTime="0.00" timeLoss="61.85" rerouteNo="0" devices="tripinfo_veh3" vType="car" speedFactor="1.08" vaporized=""/>
    <tripinfo id="veh51" depart="26.00" departLane="-802794948#2_0" departPos="5.10" departSpeed="0.00" departDelay="0.50" arrival="123.00" arrivalLane="802000252#3_0" arrivalPos="12.48" arrivalSpeed="11.81" duration="97.00" routeLength="577.58" waitingTime="31.00" waitingCount="1" stopTime="0.00" timeLoss="45.40" rerouteNo="0" devices="tripinfo_veh51" vType="car" speedFactor="0.88" vaporized=""/>
    <tripinfo id="veh23" depart="12.00" departLane="806724388_0" departPos="5.10" departSpeed="0.00" departDelay="0.50" arrival="124.00" arrivalLane="-805333890#2_0" arrivalPos="11.02" arrivalSpeed="7.59" duration="112.00" routeLength="926.39" waitingTime="0.00" waitingCount="0" stopTime="0.00" timeLoss="32.72" rerouteNo="0" devices="tripinfo_veh23" vType="car" speedFactor="0.97" vaporized=""/>
    <tripinfo id="veh112" depart="56.00" departLane="-1211220654_0" departPos="5.10" departSpeed="0.00" departDelay="0.00" arrival="125.00" arrivalLane="-802475564#1_0" arrivalPos="148.37" arrivalSpeed="12.51" duration="69.00" routeLength="645.09" waitingTime="0.00" waitingCount="0" stopTime="0.00" timeLoss="16.01" rerouteNo="0" devices="tripinfo_veh112" vType="car" speedFactor="0.95" vaporized=""/>
    <tripinfo id="veh10" depart="5.00" departLane="-810736397_0" departPos="5.10" departSpeed="0.00" departDelay="0.00" arrival="130.00" arrivalLane="-802464507_0" arrivalPos="78.53" arrivalSpeed="14.74" duration="125.00" routeLength="985.33" waitingTime="3.00" waitingCount="1" stopTime="0.00" timeLoss="30.32" rerouteNo="0" devices="tripinfo_veh10" vType="car" speedFactor="1.09" vaporized=""/>
    <tripinfo id="veh79" depart="40.00" departLane="901028067#0_0" departPos="0.57" departSpeed="0.00" departDelay="0.50" arrival="133.00" arrivalLane="-749369851#0_0" arrivalPos="106.27" arrivalSpeed="12.42" duration="93.00" routeLength="588.15" waitingTime="2.00" waitingCount="1" stopTime="0.00" timeLoss="15.28" rerouteNo="0" devices="tripinfo_veh79" vType="car" speedFactor="0.94" vaporized=""/>
    <tripinfo id="veh219" depart="110.00" departLane="-1193733759#0_0" departPos="5.10" departSpeed="0.00" departDelay="0.50" arrival="133.00" arrivalLane="-1210908131#5_0" arrivalPos="29.02" arrivalSpeed="20.76" duration="23.00" routeLength="233.48" waitingTime="0.00" waitingCount="0" stopTime="0.00" timeLoss="8.66" rerouteNo="0" devices="tripinfo_veh219" vType="car" speedFactor="0.97" vaporized=""/>
    <tripinfo id="veh69" depart="35.00" departLane="1364681850#1_0" departPos="0.20" departSpeed="0.00" departDelay="0.50" arrival="134.00" arrivalLane="1211178731_0" arrivalPos="129.12" arrivalSpeed="11.00" duration="99.00" routeLength="1183.22" waitingTime="10.00" waitingCount="1" stopTime="0.00" timeLoss="39.66" rerouteNo="0" devices="tripinfo_veh69" vType="car" speedFactor="0.88" vaporized=""/>
    <tripinfo id="veh117" depart="59.00" departLane="800530318#3_0" departPos="5.10" departSpeed="0.00" departDelay="0.50" arrival="139.00" arrivalLane="-802794961#0_0" arrivalPos="47.64" arrivalSpeed="14.04" duration="80.00" routeLength="942.56" waitingTime="0.00" waitingCount="0" stopTime="0.00" timeLoss="13.60" rerouteNo="0" devices="tripinfo_veh117" vType="car" speedFactor="1.06" vaporized=""/>
    <tripinfo id="veh209" depart="105.00" departLane="1210908131#3_0" departPos="0.18" departSpeed="0.00" departDelay="0.50" arrival="139.00" arrivalLane="1364681849#6_1" arrivalPos="14.01" arrivalSpeed="9.45" duration="34.00" routeLength="377.34" waitingTime="5.00" waitingCount="1" stopTime="0.00" timeLoss="17.51" rerouteNo="0" devices="tripinfo_veh209" vType="car" speedFactor="0.87" vaporized=""/>
    <tripinfo id="veh85" depart="43.00" departLane="548373963#5_0" departPos="0.20" departSpeed="0.00" departDelay="0.50" arrival="140.00" arrivalLane="-802475564#1_0" arrivalPos="148.37" arrivalSpeed="13.19" duration="97.00" routeLength="884.48" waitingTime="2.00" waitingCount="2" stopTime="0.00" timeLoss="24.87" rerouteNo="0" devices="tripinfo_veh85" vType="car" speedFactor="1.01" vaporized=""/>
    <tripinfo id="veh241" depart="121.00" departLane="-802794948#2_0" departPos="5.10" departSpeed="0.00" departDelay="0.50" arrival="141.00" arrivalLane="802794946#2_0" arrivalPos="38.00" arrivalSpeed="14.15" duration="20.00" routeLength="152.15" waitingTime="0.00" waitingCount="0" stopTime="0.00" timeLoss="6.97" rerouteNo="0" devices="tripinfo_veh241" vType="car" speedFactor="1.09" vaporized=""/>
    <tripinfo id="veh139" depart="70.00" departLane="802000252#4_0" departPos="5.10" departSpeed="0.00" departDelay="0.50" arrival="142.00" arrivalLane="744796384_0" arrivalPos="198.26" arrivalSpeed="14.06" duration="72.00" routeLength="1085.31" waitingTime="0.00" waitingCount="0" stopTime="0.00" timeLoss="19.88" rerouteNo="0" devices="tripinfo_veh139" vType="car" speedFactor="1.03" vaporized=""/>
    <tripinfo id="veh31" depart="16.00" departLane="-801397524_0" departPos="5.10" departSpeed="0.00" departDelay="0.50" arrival="143.00" arrivalLane="-1193733759#3_0" arrivalPos="51.24" arrivalSpeed="14.27" duration="127.00" routeLength="1452.67" waitingTime="8.00" waitingCount="2" stopTime="0.00" timeLoss="57.13" rerouteNo="0" devices="tripinfo_veh31" vType="car" speedFactor="1.18" vaporized=""/>
    <tripinfo id="veh237" depart="120.00" departLane="1210908131#4_0" departPos="0.20" departSpeed="0.00" departDelay="1.50" arrival="144.00" arrivalLane="1305162882_0" arrivalPos="81.84" arrivalSpeed="12.18" duration="24.00" routeLength="206.96" waitingTime="0.00" waitingCount="0" stopTime="0.00" timeLoss="10.04" rerouteNo="0" devices="tripinfo_veh237" vType="car" speedFactor="0.97" vaporized=""/>
    <tripinfo id="veh162" depart="81.00" departLane="-802794960#2_0" departPos="5.10" departSpeed="0.00" departDelay="0.00" arrival="146.00" arrivalLane="-802794952_0" arrivalPos="85.87" arrivalSpeed="14.34" duration="65.00" routeLength="432.74" waitingTime="17.00" waitingCount="1" stopTime="0.00" timeLoss="32.50" rerouteNo="0" devices="tripinfo_veh162" vType="car" speedFactor="1.07" vaporized=""/>
    <tripinfo id="veh222" depart="111.00" departLane="-763019925#1_0" departPos="5.10" departSpeed="0.00" departDelay="0.00" arrival="146.00" arrivalLane="-744528054#2_0" arrivalPos="35.79" arrivalSpeed="12.55" duration="35.00" routeLength="270.71" waitingTime="0.00" waitingCount="0" stopTime="0.00" timeLoss="9.20" rerouteNo="0" devices="tripinfo_veh222" vType="car" speedFactor="1.10" vaporized=""/>
    <tripinfo id="veh169" depart="85.00" departLane="-802794960#1_0" departPos="5.10" departSpeed="0.00" departDelay="0.50" arrival="147.00" arrivalLane="1364681849#2_1" arrivalPos="123.24" arrivalSpeed="25.23" duration="62.00" routeLength="795.04" waitingTime="0.00" waitingCount="0" stopTime="0.00" timeLoss="15.93" rerouteNo="0" devices="tripinfo_veh169" vType="car" speedFactor="1.14" vaporized=""/>
    <tripinfo id="veh246" depart="123.00" departLane="1177215277_0" departPos="5.10" departSpeed="0.00" departDelay="0.00" arrival="148.00" arrivalLane="1210908131#8_0" arrivalPos="0.20" arrivalSpeed="2.35" duration="25.00" routeLength="227.08" waitingTime="4.00" waitingCount="1" stopTime="0.00" timeLoss="15.01" rerouteNo="0" devices="tripinfo_veh246" vType="car" speedFactor="0.97" vaporized=""/>
    <tripinfo id="veh115" depart="58.00" departLane="802794943_0" departPos="5.10" departSpeed="0.00" departDelay="0.50" arrival="149.00" arrivalLane="1305162893_0" arrivalPos="45.63" arrivalSpeed="13.66" duration="91.00" routeLength="1009.45" waitingTime="0.00" waitingCount="0" stopTime="0.00" timeLoss="16.45" rerouteNo="0" devices="tripinfo_veh115" vType="car" speedFactor="1.01" vaporized=""/>
    <tripinfo id="veh156" depart="78.00" departLane="-802794952_0" departPos="5.10" departSpeed="0.00" departDelay="0.00" arrival="149.00" arrivalLane="-1262877731#2_0" arrivalPos="37.32" arrivalSpeed="13.30" duration="71.00" routeLength="720.75" waitingTime="0.00" waitingCount="0" stopTime="0.00" timeLoss="16.24" rerouteNo="0" devices="tripinfo_veh156" vType="car" speedFactor="1.00" vaporized=""/>
    <tripinfo id="veh22" depart="11.00" departLane="-1211203284_0" departPos="5.10" departSpeed="0.00" departDelay="0.00" arrival="153.00" arrivalLane="-1211178731_0" arrivalPos="131.37" arrivalSpeed="13.46" duration="142.00" routeLength="1716.86" waitingTime="4.00" waitingCount="1" stopTime="0.00" timeLoss="46.14" rerouteNo="0" devices="tripinfo_veh22" vType="car" speedFactor="1.01" vaporized=""/>
    <tripinfo id="veh170" depart="85.00" departLane="548373963#0_0" departPos="5.10" departSpeed="0.00" departDelay="0.00" arrival="153.00" arrivalLane="-802475564#0_0" arrivalPos="52.78" arrivalSpeed="11.17" duration="68.00" routeLength="700.99" waitingTime="1.00" waitingCount="1" stopTime="0.00" timeLoss="20.68" rerouteNo="0" devices="tripinfo_veh170" vType="car" speedFactor="0.88" vaporized=""/>
    <tripinfo id="veh171" depart="86.00" departLane="1211182611#1_0" departPos="5.10" departSpeed="0.00" departDelay="0.50" arrival="155.00" arrivalLane="749959413#0_0" arrivalPos="77.70" arrivalSpeed="14.87" duration="69.00" routeLength="646.74" waitingTime="0.00" waitingCount="0" stopTime="0.00" timeLoss="20.18" rerouteNo="0" devices="tripinfo_veh171" vType="car" speedFactor="1.08" vaporized=""/>
    <tripinfo id="veh189" depart="95.00" departLane="-744240849_0" departPos="5.10" departSpeed="0.00" departDelay="0.50" arrival="157.00" arrivalLane="1177215276_0" arrivalPos="18.14" arrivalSpeed="13.23" duration="62.00" routeLength="1040.31" waitingTime="0.00" waitingCount="0" stopTime="0.00" timeLoss="15.72" rerouteNo="0" devices="tripinfo_veh189" vType="car" speedFactor="1.08" vaporized=""/>
    <tripinfo id="veh104" depart="52.00" departLane="1364681848#3_0" departPos="5.10" departSpeed="0.00" departDelay="0.00" arrival="159.00" arrivalLane="749392248#2_0" arrivalPos="86.74" arrivalSpeed="13.66" duration="107.00" routeLength="1343.89" waitingTime="0.00" waitingCount="0" stopTime="0.00" timeLoss="23.66" rerouteNo="0" devices="tripinfo_veh104" vType="car" speedFactor="1.01" vaporized=""/>
    <tripinfo id="veh176" depart="88.00" departLane="763019925#0_0" departPos="5.10" departSpeed="0.00" departDelay="0.00" arrival="162.00" arrivalLane="1364681849#2_1" arrivalPos="123.24" arrivalSpeed="27.40" duration="74.00" routeLength="706.85" waitingTime="3.00" waitingCount="1" stopTime="0.00" timeLoss="21.99" rerouteNo="0" devices="tripinfo_veh176" vType="car" speedFactor="1.00" vaporized=""/>
    <tripinfo id="veh204" depart="102.00" departLane="1262877732_0" departPos="5.10" departSpeed="0.00" departDelay="0.00" arrival="162.00" arrivalLane="802794953_0" arrivalPos="61.99" arrivalSpeed="14.05" duration="60.00" routeLength="598.93" waitingTime="3.00" waitingCount="1" stopTime="0.00" timeLoss="18.27" rerouteNo="0" devices="tripinfo_veh204" vType="car" speedFactor="1.10" vaporized=""/>
    <tripinfo id="veh129" depart="65.00" departLane="802794953_0" departPos="5.10" departSpeed="0.00" departDelay="0.50" arrival="170.00" arrivalLane="-1305162891_0" arrivalPos="117.43" arrivalSpeed="12.10" duration="105.00" routeLength="1060.85" waitingTime="0.00" waitingCount="0" stopTime="0.00" timeLoss="20.27" rerouteNo="0" devices="tripinfo_veh129" vType="car" speedFactor="0.94" vaporized=""/>
    <tripinfo id="veh27" depart="14.00" departLane="-749392248#2_0" departPos="5.10" departSpeed="0.00" departDelay="0.50" arrival="171.00" arrivalLane="-1305162887_0" arrivalPos="30.11" arrivalSpeed="11.70" duration="157.00" routeLength="337.37" waitingTime="106.00" waitingCount="2" stopTime="0.00" timeLoss="126.73" rerouteNo="0" devices="tripinfo_veh27" vType="car" speedFactor="0.92" vaporized=""/>
    <tripinfo id="veh202" depart="101.00" departLane="450752220#1_0" departPos="5.10" departSpeed="0.00" departDelay="0.00" arrival="171.00" arrivalLane="-1211184269_0" arrivalPos="34.22" arrivalSpeed="12.20" duration="70.00" routeLength="606.72" waitingTime="0.00" waitingCount="0" stopTime="0.00" timeLoss="18.11" rerouteNo="0" devices="tripinfo_veh202" vType="car" speedFactor="0.90" vaporized=""/>
    <tripinfo id="veh123" depart="62.00" departLane="744528054#2_0" departPos="5.10" departSpeed="0.00" departDelay="0.50" arrival="172.00" arrivalLane="-450752220#2_0" arrivalPos="13.84" arrivalSpeed="10.50" duration="110.00" routeLength="578.58" waitingTime="51.00" waitingCount="1" stopTime="0.00" timeLoss="69.56" rerouteNo="0" devices="tripinfo_veh123" vType="car" speedFactor="1.10" vaporized=""/>
    <tripinfo id="veh234" depart="117.00" departLane="-1195177019#1_0" departPos="5.10" departSpeed="0.00" departDelay="0.00" arrival="174.00" arrivalLane="802794960#2_0" arrivalPos="17.92" arrivalSpeed="8.52" duration="57.00" routeLength="426.82" waitingTime="0.00" waitingCount="0" stopTime="0.00" timeLoss="15.12" rerouteNo="0" devices="tripinfo_veh234" vType="car" speedFactor="0.84" vaporized=""/>
    <tripinfo id="veh218" depart="109.00" departLane="-1193733759#3_0" departPos="5.10" departSpeed="0.00" departDelay="0.00" arrival="177.00" arrivalLane="-749959413#3_0" arrivalPos="13.40" arrivalSpeed="13.13" duration="68.00" routeLength="731.71" waitingTime="0.00" waitingCount="0" stopTime="0.00" timeLoss="19.47" rerouteNo="0" devices="tripinfo_veh218" vType="car" speedFactor="1.00" vaporized=""/>
    <tripinfo id="veh43" depart="25.00" departLane="-806724388_0" departPos="5.10" departSpeed="0.00" departDelay="3.50" arrival="179.00" arrivalLane="-805333882#0_0" arrivalPos="348.47" arrivalSpeed="14.60" duration="154.00" routeLength="1552.36" waitingTime="0.00" waitingCount="0" stopTime="0.00" timeLoss="33.83" rerouteNo="0" devices="tripinfo_veh43" vType="car" speedFactor="1.09" vaporized=""/>
    <tripinfo id="veh122" depart="61.00" departLane="-800530318#3_0" departPos="5.10" departSpeed="0.00" departDelay="0.00" arrival="180.00" arrivalLane="749959413#2_0" arrivalPos="98.41" arrivalSpeed="13.68" duration="119.00" routeLength="1449.68" waitingTime="0.00" waitingCount="0" stopTime="0.00" timeLoss="26.35" rerouteNo="0" devices="tripinfo_veh122" vType="car" speedFactor="1.01" vaporized=""/>