<?xml version="1.0" encoding="UTF-8"?>

<!-- generated on 2026-03-17 23:06:36 by Eclipse SUMO sumo Version 1.24.0
<sumoConfiguration xmlns:xsi="http://www.w3.org/2001/XMLSchema-instance" xsi:noNamespaceSchemaLocation="http://sumo.dlr.de/xsd/sumoConfiguration.xsd">

    <input>
        <net-file value="best_map.net.xml"/>
        <route-files value="simulation_optimized.rou.xml"/>
    </input>

    <output>
        <tripinfo-output value="tripinfo_new.xml"/>
    </output>

    <report>
        <duration-log.statistics value="true"/>
    </report>

</sumoConfiguration>
-->

<tripinfos xmlns:xsi="http://www.w3.org/2001/XMLSchema-instance" xsi:noNamespaceSchemaLocation="http://sumo.dlr.de/xsd/tripinfo_file.xsd">
    <tripinfo id="veh56" depart="28.00" departLane="-597693449#3_0" departPos="5.10" departSpeed="0.00" departDelay="0.00" arrival="47.00" arrivalLane="-597693449#1_0" arrivalPos="40.02" arrivalSpeed="22.10" duration="19.00" routeLength="294.33" waitingTime="0.00" waitingCount="0" stopTime="0.00" timeLoss="5.58" rerouteNo="0" devices="tripinfo_veh56" vType="car" speedFactor="1.02" vaporized=""/>
    <tripinfo id="veh4" depart="2.00" departLane="957060887_0" departPos="5.10" departSpeed="0.00" departDelay="0.00" arrival="94.00" arrivalLane="-817981377#3_0" arrivalPos="94.18" arrivalSpeed="19.08" duration="92.00" routeLength="1365.76" waitingTime="0.00" waitingCount="0" stopTime="0.00" timeLoss="22.89" rerouteNo="0" devices="tripinfo_veh4" vType="car" speedFactor="1.03" vaporized=""/>
    <tripinfo id="veh26" depart="13.00" departLane="-1309221437_0" departPos="5.10" departSpeed="0.00" departDelay="0.00" arrival="102.00" arrivalLane="-848727039#5_0" arrivalPos="6.52" arrivalSpeed="12.28" duration="89.00" routeLength="1049.94" waitingTime="0.00" waitingCount="0" stopTime="0.00" timeLoss="15.00" rerouteNo="0" devices="tripinfo_veh26" vType="car" speedFactor="0.87" vaporized=""/>
    <tripinfo id="veh12" depart="6.00" departLane="-842128447#1_0" departPos="5.10" departSpeed="0.00" departDelay="0.00" arrival="105.00" arrivalLane="-1252047658#1_0" arrivalPos="153.12" arrivalSpeed="22.88" duration="99.00" routeLength="1784.94" waitingTime="0.00" waitingCount="0" stopTime="0.00" timeLoss="27.89" rerouteNo="0" devices="tripinfo_veh12" vType="car" speedFactor="1.05" vaporized=""/>
    <tripinfo id="veh58" depart="29.00" departLane="747493592#1_0" departPos="5.10" departSpeed="0.00" departDelay="0.00" arrival="107.00" arrivalLane="-849424259#1_0" arrivalPos="205.92" arrivalSpeed="21.69" duration="78.00" routeLength="1290.96" waitingTime="0.00" waitingCount="0" stopTime="0.00" timeLoss="18.90" rerouteNo="0" devices="tripinfo_veh58" vType="car" speedFactor="1.00" vaporized=""/>
    <tripinfo id="veh6" depart="3.00" departLane="539178239#5_0" departPos="5.10" departSpeed="0.00" departDelay="0.00" arrival="114.00" arrivalLane="-846228371#0_0" arrivalPos="145.94" arrivalSpeed="13.95" duration="111.00" routeLength="1368.73" waitingTime="0.00" waitingCount="0" stopTime="0.00" timeLoss="14.59" rerouteNo="0" devices="tripinfo_veh6" vType="car" speedFactor="1.05" vaporized=""/>
    <tripinfo id="veh7" depart="4.00" departLane="817981377#14_0" departPos="5.10" departSpeed="0.00" departDelay="0.50" arrival="122.00" arrivalLane="-817981377#7_0" arrivalPos="327.99" arrivalSpeed="23.85" duration="118.00" routeLength="2262.16" waitingTime="0.00" waitingCount="0" stopTime="0.00" timeLoss="23.54" rerouteNo="0" devices="tripinfo_veh7" vType="car" speedFactor="0.89" vaporized=""/>
    <tripinfo id="veh14" depart="7.00" departLane="763019962#1_0" departPos="5.10" departSpeed="0.00" departDelay="0.00" arrival="124.00" arrivalLane="-1308725824#0_0" arrivalPos="162.95" arrivalSpeed="12.53" duration="117.00" routeLength="1672.23" waitingTime="2.00" waitingCount="1" stopTime="0.00" timeLoss="28.53" rerouteNo="0" devices="tripinfo_veh14" vType="car" speedFactor="0.99" vaporized=""/>
    <tripinfo id="veh40" depart="20.00" departLane="763018290_0" departPos="5.10" departSpeed="0.00" departDelay="0.00" arrival="132.00" arrivalLane="1320330289_0" arrivalPos="38.78" arrivalSpeed="24.34" duration="112.00" routeLength="1885.74" waitingTime="0.00" waitingCount="0" stopTime="0.00" timeLoss="20.91" rerouteNo="0" devices="tripinfo_veh40" vType="car" speedFactor="1.10" vaporized=""/>
    <tripinfo id="veh128" depart="64.00" departLane="817981377#6_0" departPos="5.10" departSpeed="0.00" departDelay="0.00" arrival="134.00" arrivalLane="-887054166#0_0" arrivalPos="31.00" arrivalSpeed="12.17" duration="70.00" routeLength="1121.66" waitingTime="0.00" waitingCount="0" stopTime="0.00" timeLoss="23.37" rerouteNo="0" devices="tripinfo_veh128" vType="car" speedFactor="1.10" vaporized=""/>
    <tripinfo id="veh117" depart="59.00" departLane="957052483_0" departPos="5.10" departSpeed="0.00" departDelay="0.50" arrival="135.00" arrivalLane="1309184327_0" arrivalPos="278.54" arrivalSpeed="11.68" duration="76.00" routeLength="880.94" waitingTime="0.00" waitingCount="0" stopTime="0.00" timeLoss="13.12" rerouteNo="0" devices="tripinfo_veh117" vType="car" speedFactor="0.87" vaporized=""/>
    <tripinfo id="veh126" depart="63.00" departLane="539178239#5_0" departPos="5.10" departSpeed="0.00" departDelay="0.00" arrival="146.00" arrivalLane="888474711#2_0" arrivalPos="121.01" arrivalSpeed="14.58" duration="83.00" routeLength="966.74" waitingTime="0.00" waitingCount="0" stopTime="0.00" timeLoss="14.98" rerouteNo="0" devices="tripinfo_veh126" vType="car" speedFactor="1.07" vaporized=""/>
    <tripinfo id="veh69" depart="35.00" departLane="887055669#1_0" departPos="5.10" departSpeed="0.00" departDelay="0.50" arrival="147.00" arrivalLane="1306480972#2_0" arrivalPos="34.39" arrivalSpeed="11.87" duration="112.00" routeLength="1477.76" waitingTime="0.00" waitingCount="0" stopTime="0.00" timeLoss="23.85" rerouteNo="0" devices="tripinfo_veh69" vType="car" speedFactor="0.94" vaporized=""/>
    <tripinfo id="veh87" depart="44.00" departLane="1372011600#1_0" departPos="0.20" departSpeed="0.00" departDelay="0.50" arrival="148.00" arrivalLane="888474711#1_0" arrivalPos="236.56" arrivalSpeed="13.05" duration="104.00" routeLength="1356.12" waitingTime="0.00" waitingCount="0" stopTime="0.00" timeLoss="16.61" rerouteNo="0" devices="tripinfo_veh87" vType="car" speedFactor="1.02" vaporized=""/>
    <tripinfo id="veh80" depart="48.00" departLane="44634825#12_0" departPos="5.10" departSpeed="0.00" departDelay="8.00" arrival="149.00" arrivalLane="-801709800#0_0" arrivalPos="478.38" arrivalSpeed="12.91" duration="101.00" routeLength="1504.31" waitingTime="0.00" waitingCount="0" stopTime="0.00" timeLoss="21.19" rerouteNo="0" devices="tripinfo_veh80" vType="car" speedFactor="0.98" vaporized=""/>
    <tripinfo id="veh71" depart="36.00" departLane="800789139#1_0" departPos="5.10" departSpeed="0.00" departDelay="0.50" arrival="150.00" arrivalLane="800789138#0_0" arrivalPos="254.60" arrivalSpeed="11.93" duration="114.00" routeLength="1192.88" waitingTime="0.00" waitingCount="0" stopTime="0.00" timeLoss="16.75" rerouteNo="0" devices="tripinfo_veh71" vType="car" speedFactor="0.91" vaporized=""/>
    <tripinfo id="veh15" depart="8.00" departLane="-817981377#5_0" departPos="5.10" departSpeed="0.00" departDelay="0.50" arrival="151.00" arrivalLane="887055668_0" arrivalPos="375.77" arrivalSpeed="12.00" duration="143.00" routeLength="2049.08" waitingTime="0.00" waitingCount="0" stopTime="0.00" timeLoss="28.06" rerouteNo="0" devices="tripinfo_veh15" vType="car" speedFactor="0.93" vaporized=""/>
    <tripinfo id="veh18" depart="9.00" departLane="887055667_0" departPos="5.10" departSpeed="0.00" departDelay="0.00" arrival="153.00" arrivalLane="817981377#7_0" arrivalPos="325.45" arrivalSpeed="24.72" duration="144.00" routeLength="2395.90" waitingTime="0.00" waitingCount="0" stopTime="0.00" timeLoss="35.10" rerouteNo="0" devices="tripinfo_veh18" vType="car" speedFactor="0.94" vaporized=""/>
    <tripinfo id="veh90" depart="45.00" departLane="698537399#0_0" departPos="5.10" departSpeed="0.00" departDelay="0.00" arrival="157.00" arrivalLane="888474711#0_0" arrivalPos="38.34" arrivalSpeed="12.85" duration="112.00" routeLength="1720.79" waitingTime="2.00" waitingCount="1" stopTime="0.00" timeLoss="38.98" rerouteNo="0" devices="tripinfo_veh90" vType="car" speedFactor="0.98" vaporized=""/>
    <tripinfo id="veh79" depart="40.00" departLane="956221994_0" departPos="5.10" departSpeed="0.00" departDelay="0.50" arrival="160.00" arrivalLane="958758865_0" arrivalPos="21.65" arrivalSpeed="12.14" duration="120.00" routeLength="1800.65" waitingTime="0.00" waitingCount="0" stopTime="0.00" timeLoss="24.19" rerouteNo="0" devices="tripinfo_veh79" vType="car" speedFactor="0.96" vaporized=""/>
    <tripinfo id="veh257" depart="129.00" departLane="842128447#0_0" departPos="5.10" departSpeed="0.00" departDelay="0.50" arrival="163.00" arrivalLane="-955975125_0" arrivalPos="125.20" arrivalSpeed="12.89" duration="34.00" routeLength="368.45" waitingTime="0.00" waitingCount="0" stopTime="0.00" timeLoss="6.38" rerouteNo="0" devices="tripinfo_veh257" vType="car" speedFactor="0.97" vaporized=""/>
    <tripinfo id="veh20" depart="10.00" departLane="-801834632_0" departPos="5.10" departSpeed="0.00" departDelay="0.00" arrival="167.00" arrivalLane="-450700266#5_0" arrivalPos="43.80" arrivalSpeed="24.69" duration="157.00" routeLength="2360.04" waitingTime="1.00" waitingCount="1" stopTime="0.00" timeLoss="41.38" rerouteNo="0" devices="tripinfo_veh20" vType="car" speedFactor="1.16" vaporized=""/>
    <tripinfo id="veh83" depart="42.00" departLane="905715082#3_0" departPos="5.10" departSpeed="0.00" departDelay="0.50" arrival="168.00" arrivalLane="251819185#8_0" arrivalPos="124.11" arrivalSpeed="26.84" duration="126.00" routeLength="2166.17" waitingTime="0.00" waitingCount="0" stopTime="0.00" timeLoss="20.79" rerouteNo="0" devices="tripinfo_veh83" vType="car" speedFactor="1.01" vaporized=""/>
    <tripinfo id="veh175" depart="88.00" departLane="-849652290#1_0" departPos="5.10" departSpeed="0.00" departDelay="0.50" arrival="169.00" arrivalLane="817621039_0" arrivalPos="53.75" arrivalSpeed="13.25" duration="81.00" routeLength="1020.85" waitingTime="0.00" waitingCount="0" stopTime="0.00" timeLoss="22.48" rerouteNo="0" devices="tripinfo_veh175" vType="car" speedFactor="0.98" vaporized=""/>
    <tripinfo id="veh2" depart="1.00" departLane="-846228371#2_0" departPos="5.10" departSpeed="0.00" departDelay="0.00" arrival="170.00" arrivalLane="-44634825#9_0" arrivalPos="197.46" arrivalSpeed="27.94" duration="169.00" routeLength="3003.83" waitingTime="0.00" waitingCount="0" stopTime="0.00" timeLoss="19.85" rerouteNo="0" devices="tripinfo_veh2" vType="car" speedFactor="1.01" vaporized=""/>
    <tripinfo id="veh153" depart="77.00" departLane="753822886#0_0" departPos="5.10" departSpeed="0.00" departDelay="0.50" arrival="171.00" arrivalLane="597693449#2_0" arrivalPos="139.63" arrivalSpeed="18.79" duration="94.00" routeLength="1385.62" waitingTime="0.00" waitingCount="0" stopTime="0.00" timeLoss="17.61" rerouteNo="0" devices="tripinfo_veh153" vType="car" speedFactor="0.89" vaporized=""/>
    <tripinfo id="veh22" depart="11.00" departLane="1263672512#2_0" departPos="5.10" departSpeed="0.00" departDelay="0.00" arrival="178.00" arrivalLane="-1306480978_0" arrivalPos="1.02" arrivalSpeed="13.84" duration="167.00" routeLength="3041.46" waitingTime="0.00" waitingCount="0" stopTime="0.00" timeLoss="42.24" rerouteNo="0" devices="tripinfo_veh22" vType="car" speedFactor="1.01" vaporized=""/>
    <tripinfo id="veh66" depart="33.00" departLane="-887055666#1_0" departPos="5.10" departSpeed="0.00" departDelay="0.00" arrival="182.00" arrivalLane="-817981377#9_0" arrivalPos="22.44" arrivalSpeed="10.30" duration="149.00" routeLength="1822.96" waitingTime="2.00" waitingCount="1" stopTime="0.00" timeLoss="37.25" rerouteNo="0" devices="tripinfo_veh66" vType="car" speedFactor="1.02" vaporized=""/>
    <tripinfo id="veh35" depart="18.00" departLane="531663745#2_0" departPos="5.10" departSpeed="0.00" departDelay="0.50" arrival="183.00" arrivalLane="-1263672512#3_0" arrivalPos="404.96" arrivalSpeed="30.97" duration="165.00" routeLength="3009.27" waitingTime="0.00" waitingCount="0" stopTime="0.00" timeLoss="33.35" rerouteNo="0" devices="tripinfo_veh35" vType="car" speedFactor="1.17" vaporized=""/>
    <tripinfo id="veh164" depart="82.00" departLane="747493593#0_0" departPos="5.10" departSpeed="0.00" departDelay="0.00" arrival="185.00" arrivalLane="842128447#2_0" arrivalPos="42.45" arrivalSpeed="14.29" duration="103.00" routeLength="1838.82" waitingTime="0.00" waitingCount="0" stopTime="0.00" timeLoss="18.85" rerouteNo="0" devices="tripinfo_veh164" vType="car" speedFactor="1.08" vaporized=""/>
    <tripinfo id="veh180" depart="90.00" departLane="-835923222#0_0" departPos="0.20" departSpeed="0.00" departDelay="0.00" arrival="186.00" arrivalLane="251819185#7_0" arrivalPos="364.36" arrivalSpeed="30.85" duration="96.00" routeLength="1919.05" waitingTime="2.00" waitingCount="1" stopTime="0.00" timeLoss="23.10" rerouteNo="0" devices="tripinfo_veh180" vType="car" speedFactor="1.14" vaporized=""/>
    <tripinfo id="veh27" depart="16.00" departLane="-539178239#0_0" departPos="5.10" departSpeed="0.00" departDelay="2.50" arrival="188.00" arrivalLane="817981377#10_0" arrivalPos="71.45" arrivalSpeed="11.27" duration="172.00" routeLength="2448.55" waitingTime="13.00" waitingCount="1" stopTime="0.00" timeLoss="54.96" rerouteNo="0" devices="tripinfo_veh27" vType="car" speedFactor="0.92" vaporized=""/>
    <tripinfo id="veh82" depart="41.00" departLane="1306480965#1_0" departPos="5.10" departSpeed="0.00" departDelay="0.00" arrival="188.00" arrivalLane="-817981377#12_0" arrivalPos="320.73" arrivalSpeed="27.09" duration="147.00" routeLength="2200.62" waitingTime="0.00" waitingCount="0" stopTime="0.00" timeLoss="35.18" rerouteNo="0" devices="tripinfo_veh82" vType="car" speedFactor="0.98" vaporized=""/>
    <tripinfo id="veh288" depart="144.00" departLane="762834594#1_0" departPos="5.10" departSpeed="0.00" departDelay="0.00" arrival="190.00" arrivalLane="-762834594#1_0" arrivalPos="68.92" arrivalSpeed="15.90" duration="46.00" routeLength="491.38" waitingTime="0.00" waitingCount="0" stopTime="0.00" timeLoss="15.20" rerouteNo="0" devices="tripinfo_veh288" vType="car" speedFactor="1.21" vaporized=""/>
    <tripinfo id="veh129" depart="65.00" departLane="-857437897_0" departPos="5.10" departSpeed="0.00" departDelay="0.50" arrival="191.00" arrivalLane="-1376446261_0" arrivalPos="8.42" arrivalSpeed="8.36" duration="126.00" routeLength="2014.93" waitingTime="0.00" waitingCount="0" stopTime="0.00" timeLoss="26.19" rerouteNo="0" devices="tripinfo_veh129" vType="car" speedFactor="1.03" vaporized=""/>
    <tripinfo id="veh211" depart="106.00" departLane="27808248#5_0" departPos="5.10" departSpeed="0.00" departDelay="0.50" arrival="191.00" arrivalLane="-817620016_0" arrivalPos="70.25" arrivalSpeed="14.96" duration="85.00" routeLength="793.85" waitingTime="5.00" waitingCount="1" stopTime="0.00" timeLoss="34.82" rerouteNo="0" devices="tripinfo_veh211" vType="car" speedFactor="1.11" vaporized=""/>
    <tripinfo id="veh84" depart="42.00" departLane="-888696116#0_0" departPos="5.10" departSpeed="0.00" departDelay="0.00" arrival="192.00" arrivalLane="-1252047658#2_0" arrivalPos="80.08" arrivalSpeed="21.75" duration="150.00" routeLength="1762.35" waitingTime="42.00" waitingCount="2" stopTime="0.00" timeLoss="83.57" rerouteNo="0" devices="tripinfo_veh84" vType="car" speedFactor="1.09" vaporized=""/>
    <tripinfo id="veh8" depart="4.00" departLane="888696116#2_0" departPos="5.10" departSpeed="0.00" departDelay="0.00" arrival="195.00" arrivalLane="-958131016_0" arrivalPos="103.29" arrivalSpeed="12.68" duration="191.00" routeLength="2953.77" waitingTime="1.00" waitingCount="1" stopTime="0.00" timeLoss="45.53" rerouteNo="0" devices="tripinfo_veh8" vType="car" speedFactor="0.94" vaporized=""/>
    <tripinfo id="veh38" depart="19.00" departLane="-1308725824#0_0" departPos="5.10" departSpeed="0.00" departDelay="0.00" arrival="198.00" arrivalLane="-801709802#3_0" arrivalPos="76.20" arrivalSpeed="12.85" duration="179.00" routeLength="2087.93" waitingTime="0.00" waitingCount="0" stopTime="0.00" timeLoss="21.71" rerouteNo="0" devices="tripinfo_veh38" vType="car" speedFactor="0.97" vaporized=""/>
    <tripinfo id="veh94" depart="47.00" departLane="-887055669#1_0" departPos="5.10" departSpeed="0.00" departDelay="0.00" arrival="199.00" arrivalLane="817981377#9_0" arrivalPos="23.01" arrivalSpeed="21.09" duration="152.00" routeLength="2467.48" waitingTime="0.00" waitingCount="0" stopTime="0.00" timeLoss="30.74" rerouteNo="0" devices="tripinfo_veh94" vType="car" speedFactor="1.02" vaporized=""/>
    <tripinfo id="veh92" depart="46.00" departLane="817620011_0" departPos="5.10" departSpeed="0.00" departDelay="0.00" arrival="200.00" arrivalLane="1376446263_0" arrivalPos="0.20" arrivalSpeed="9.20" duration="154.00" routeLength="2581.33" waitingTime="0.00" waitingCount="0" stopTime="0.00" timeLoss="31.98" rerouteNo="0" devices="tripinfo_veh92" vType="car" speedFactor="1.04" vaporized=""/>
    <tripinfo id="veh154" depart="77.00" departLane="-548373984#3_0" departPos="5.10" departSpeed="0.00" departDelay="0.00" arrival="201.00" arrivalLane="958131016_0" arrivalPos="106.64" arrivalSpeed="12.86" duration="124.00" routeLength="2126.21" waitingTime="0.00" waitingCount="0" stopTime="0.00" timeLoss="26.98" rerouteNo="0" devices="tripinfo_veh154" vType="car" speedFactor="1.00" vaporized=""/>
    <tripinfo id="veh139" depart="70.00" departLane="-887055666#1_0" departPos="5.10" departSpeed="0.00" departDelay="0.50" arrival="202.00" arrivalLane="-1306480968_0" arrivalPos="25.13" arrivalSpeed="12.47" duration="132.00" routeLength="1978.99" waitingTime="4.00" waitingCount="1" stopTime="0.00" timeLoss="26.22" rerouteNo="0" devices="tripinfo_veh139" vType="car" speedFactor="0.96" vaporized=""/>
    <tripinfo id="veh187" depart="94.00" departLane="-957053245#1_0" departPos="5.10" departSpeed="0.00" departDelay="0.50" arrival="202.00" arrivalLane="-747493590#1_0" arrivalPos="22.45" arrivalSpeed="11.29" duration="108.00" routeLength="1567.37" waitingTime="0.00" waitingCount="0" stopTime="0.00" timeLoss="29.81" rerouteNo="0" devices="tripinfo_veh187" vType="car" speedFactor="1.06" vaporized=""/>
    <tripinfo id="veh43" depart="22.00" departLane="-801709799#0_0" departPos="5.10" departSpeed="0.00" departDelay="0.50" arrival="205.00" arrivalLane="763020805#2_0" arrivalPos="89.41" arrivalSpeed="12.19" duration="183.00" routeLength="2568.80" waitingTime="2.00" waitingCount="1" stopTime="0.00" timeLoss="39.65" rerouteNo="0" devices="tripinfo_veh43" vType="car" speedFactor="0.96" vaporized=""/>
    <tripinfo id="veh65" depart="33.00" departLane="-1308725833_0" departPos="5.10" departSpeed="0.00" departDelay="0.50" arrival="205.00" arrivalLane="1309989505#2_0" arrivalPos="67.40" arrivalSpeed="15.08" duration="172.00" routeLength="2266.07" waitingTime="0.00" waitingCount="0" stopTime="0.00" timeLoss="23.87" rerouteNo="0" devices="tripinfo_veh65" vType="car" speedFactor="1.12" vaporized=""/>
    <tripinfo id="veh76" depart="38.00" departLane="801834632_0" departPos="5.10" departSpeed="0.00" departDelay="0.00" arrival="207.00" arrivalLane="957057618_0" arrivalPos="187.35" arrivalSpeed="13.27" duration="169.00" routeLength="2156.40" waitingTime="0.00" waitingCount="0" stopTime="0.00" timeLoss="31.36" rerouteNo="0" devices="tripinfo_veh76" vType="car" speedFactor="0.97" vaporized=""/>
    <tripinfo id="veh89" depart="45.00" departLane="753822886#0_0" departPos="5.10" departSpeed="0.00" departDelay="0.50" arrival="207.00" arrivalLane="1306480981_0" arrivalPos="78.52" arrivalSpeed="14.75" duration="162.00" routeLength="2691.78" waitingTime="0.00" waitingCount="0" stopTime="0.00" timeLoss="41.38" rerouteNo="0" devices="tripinfo_veh89" vType="car" speedFactor="1.15" vaporized=""/>
    <tripinfo id="veh60" depart="30.00" departLane="-887055666#2_0" departPos="5.10" departSpeed="0.00" departDelay="0.00" arrival="208.00" arrivalLane="-31857931#10_0" arrivalPos="129.10" arrivalSpeed="19.76" duration="178.00" routeLength="2804.59" waitingTime="0.00" waitingCount="0" stopTime="0.00" timeLoss="25.23" rerouteNo="0" devices="tripinfo_veh60" vType="car" speedFactor="0.90" vaporized=""/>
    <tripinfo id="veh234" depart="117.00" departLane="1306480972#1_0" departPos="5.10" departSpeed="0.00" departDelay="0.00" arrival="209.00" arrivalLane="849652290#0_0" arrivalPos="90.83" arrivalSpeed="13.95" duration="92.00" routeLength="1250.68" waitingTime="0.00" waitingCount="0" stopTime="0.00" timeLoss="19.77" rerouteNo="0" devices="tripinfo_veh234" vType="car" speedFactor="1.02" vaporized=""/>
    <tripinfo id="veh52" depart="26.00" departLane="888696114_0" departPos="5.10" departSpeed="0.00" departDelay="0.00" arrival="210.00" arrivalLane="23314618#4_0" arrivalPos="103.73" arrivalSpeed="19.65" duration="184.00" routeLength="2498.26" waitingTime="2.00" waitingCount="1" stopTime="0.00" timeLoss="35.53" rerouteNo="0" devices="tripinfo_veh52" vType="car" speedFactor="0.85" vaporized=""/>
    <tripinfo id="veh96" depart="48.00" departLane="848727039#14_0" departPos="5.10" departSpeed="0.00" departDelay="0.00" arrival="210.00" arrivalLane="-835923222#2_0" arrivalPos="93.31" arrivalSpeed="11.20" duration="162.00" routeLength="2887.30" waitingTime="0.00" waitingCount="0" stopTime="0.00" timeLoss="32.88" rerouteNo="0" devices="tripinfo_veh96" vType="car" speedFactor="0.89" vaporized=""/>
    <tripinfo id="veh85" depart="43.00" departLane="957060887_0" departPos="5.10" departSpeed="0.00" departDelay="0.50" arrival="211.00" arrivalLane="-1306480973_0" arrivalPos="151.87" arrivalSpeed="14.28" duration="168.00" routeLength="3049.12" waitingTime="0.00" waitingCount="0" stopTime="0.00" timeLoss="30.98" rerouteNo="0" devices="tripinfo_veh85" vType="car" speedFactor="1.03" vaporized=""/>
    <tripinfo id="veh124" depart="62.00" departLane="1306480984_0" departPos="5.10" departSpeed="0.00" departDelay="0.00" arrival="212.00" arrivalLane="-859009059#1_0" arrivalPos="108.41" arrivalSpeed="12.72" duration="150.00" routeLength="2112.45" waitingTime="0.00" waitingCount="0" stopTime="0.00" timeLoss="21.65" rerouteNo="0" devices="tripinfo_veh124" vType="car" speedFactor="1.00" vaporized=""/>
    <tripinfo id="veh177" depart="89.00" departLane="251819185#0_0" departPos="5.10" departSpeed="0.00" departDelay="0.50" arrival="212.00" arrivalLane="-801345978#0_1" arrivalPos="56.97" arrivalSpeed="14.70" duration="123.00" routeLength="1651.27" waitingTime="6.00" waitingCount="1" stopTime="0.00" timeLoss="34.79" rerouteNo="0" devices="tripinfo_veh177" vType="car" speedFactor="1.09" vaporized=""/>
    <tripinfo id="veh3" depart="2.00" departLane="801345977#2_0" departPos="5.10" departSpeed="0.00" departDelay="0.50" arrival="213.00" arrivalLane="-539202878_0" arrivalPos="671.51" arrivalSpeed="13.92" duration="211.00" routeLength="2929.13" waitingTime="0.00" waitingCount="0" stopTime="0.00" timeLoss="31.90" rerouteNo="0" devices="tripinfo_veh3" vType="car" speedFactor="1.08" vaporized=""/>
    <tripinfo id="veh353" depart="177.00" departLane="859009059#1_0" departPos="5.10" departSpeed="0.00" departDelay="0.50" arrival="213.00" arrivalLane="-1376441512_0" arrivalPos="55.52" arrivalSpeed="13.10" duration="36.00" routeLength="392.86" waitingTime="0.00" waitingCount="0" stopTime="0.00" timeLoss="8.87" rerouteNo="0" devices="tripinfo_veh353" vType="car" speedFactor="1.11" vaporized=""/>
    <tripinfo id="veh64" depart="32.00" departLane="-1376428294#0_0" departPos="5.10" departSpeed="0.00" departDelay="0.00" arrival="214.00" arrivalLane="-450700266#4_0" arrivalPos="114.84" arrivalSpeed="23.08" duration="182.00" routeLength="2276.76" waitingTime="45.00" waitingCount="1" stopTime="0.00" timeLoss="93.94" rerouteNo="0" devices="tripinfo_veh64" vType="car" speedFactor="1.08" vaporized=""/>
    <tripinfo id="veh16" depart="8.00" departLane="-846228371#0_0" departPos="5.10" departSpeed="0.00" departDelay="0.00" arrival="215.00" arrivalLane="1376428300_0" arrivalPos="18.76" arrivalSpeed="11.70" duration="207.00" routeLength="3084.78" waitingTime="0.00" waitingCount="0" stopTime="0.00" timeLoss="23.83" rerouteNo="0" devices="tripinfo_veh16" vType="car" speedFactor="0.88" vaporized=""/>
    <tripinfo id="veh237" depart="119.00" departLane="801709803#1_0" departPos="1.61" departSpeed="0.00" departDelay="0.50" arrival="215.00" arrivalLane="1263672512#2_0" arrivalPos="125.22" arrivalSpeed="21.24" duration="96.00" routeLength="2228.10" waitingTime="0.00" waitingCount="0" stopTime="0.00" timeLoss="29.50" rerouteNo="0" devices="tripinfo_veh237" vType="car" speedFactor="1.24" vaporized=""/>
    <tripinfo id="veh198" depart="99.00" departLane="1306480965#0_0" departPos="5.10" departSpeed="0.00" departDelay="0.00" arrival="216.00" arrivalLane="1309221437_0" arrivalPos="224.24" arrivalSpeed="11.24" duration="117.00" routeLength="1097.41" waitingTime="5.00" waitingCount="1" stopTime="0.00" timeLoss="24.39" rerouteNo="0" devices="tripinfo_veh198" vType="car" speedFactor="0.90" vaporized=""/>
    <tripinfo id="veh261" depart="131.00" departLane="801345981_0" departPos="5.10" departSpeed="0.00" departDelay="0.50" arrival="216.00" arrivalLane="852882801#1_0" arrivalPos="0.20" arrivalSpeed="4.57" duration="85.00" routeLength="1052.46" waitingTime="0.00" waitingCount="0" stopTime="0.00" timeLoss="9.08" rerouteNo="0" devices="tripinfo_veh261" vType="car" speedFactor="0.93" vaporized=""/>
    <tripinfo id="veh229" depart="115.00" departLane="1306480982_0" departPos="5.10" departSpeed="0.00" departDelay="0.50" arrival="218.00" arrivalLane="-1306480963_0" arrivalPos="449.13" arrivalSpeed="11.47" duration="103.00" routeLength="1324.61" waitingTime="0.00" waitingCount="0" stopTime="0.00" timeLoss="12.94" rerouteNo="0" devices="tripinfo_veh229" vType="car" speedFactor="0.91" vaporized=""/>
    <tripinfo id="veh156" depart="78.00" departLane="-1306480977_0" departPos="5.10" departSpeed="0.00" departDelay="0.00" arrival="219.00" arrivalLane="-956061343_0" arrivalPos="16.41" arrivalSpeed="9.60" duration="141.00" routeLength="2088.96" waitingTime="6.00" waitingCount="1" stopTime="0.00" timeLoss="35.75" rerouteNo="0" devices="tripinfo_veh156" vType="car" speedFactor="1.04" vaporized=""/>
    <tripinfo id="veh143" depart="72.00" departLane="-888474709_0" departPos="5.10" departSpeed="0.00" departDelay="0.50" arrival="220.00" arrivalLane="-1372009228_0" arrivalPos="7.35" arrivalSpeed="15.09" duration="148.00" routeLength="2369.37" waitingTime="1.00" waitingCount="1" stopTime="0.00" timeLoss="34.39" rerouteNo="0" devices="tripinfo_veh143" vType="car" speedFactor="1.12" vaporized=""/>
    <tripinfo id="veh47" depart="24.00" departLane="539179122#0_0" departPos="5.10" departSpeed="0.00" departDelay="0.50" arrival="221.00" arrivalLane="1306480966#0_0" arrivalPos="88.36" arrivalSpeed="14.00" duration="197.00" routeLength="3129.83" waitingTime="0.00" waitingCount="0" stopTime="0.00" timeLoss="52.42" rerouteNo="0" devices="tripinfo_veh47" vType="car" speedFactor="1.09" vaporized=""/>
    <tripinfo id="veh210" depart="105.00" departLane="887054166#0_0" departPos="5.10" departSpeed="0.00" departDelay="0.00" arrival="221.00" arrivalLane="-1306480984_0" arrivalPos="9.28" arrivalSpeed="13.40" duration="116.00" routeLength="1494.32" waitingTime="2.00" waitingCount="1" stopTime="0.00" timeLoss="27.87" rerouteNo="0" devices="tripinfo_veh210" vType="car" speedFactor="1.03" vaporized=""/>
    <tripinfo id="veh239" depart="125.00" departLane="817981377#4_0" departPos="5.10" departSpeed="0.00" departDelay="5.50" arrival="223.00" arrivalLane="-1376441507_0" arrivalPos="57.13" arrivalSpeed="14.22" duration="98.00" routeLength="978.28" waitingTime="0.00" waitingCount="0" stopTime="0.00" timeLoss="30.03" rerouteNo="0" devices="tripinfo_veh239" vType="car" speedFactor="1.09" vaporized=""/>
    <tripinfo id="veh105" depart="53.00" departLane="-798629517_0" departPos="5.10" departSpeed="0.00" departDelay="0.50" arrival="224.00" arrivalLane="-1308727294_0" arrivalPos="124.68" arrivalSpeed="14.57" duration="171.00" routeLength="2954.89" waitingTime="1.00" waitingCount="1" stopTime="0.00" timeLoss="41.09" rerouteNo="0" devices="tripinfo_veh105" vType="car" speedFactor="1.06" vaporized=""/>
    <tripinfo id="veh149" depart="78.00" departLane="-905715082#1_0" departPos="5.10" departSpeed="0.00" departDelay="3.50" arrival="224.00" arrivalLane="-801834554#2_0" arrivalPos="53.67" arrivalSpeed="11.90" duration="146.00" routeLength="1902.42" waitingTime="0.00" waitingCount="0" stopTime="0.00" timeLoss="22.42" rerouteNo="0" devices="tripinfo_veh149" vType="car" speedFactor="0.94" vaporized=""/>
    <tripinfo id="veh99" depart="50.00" departLane="-857437897_0" departPos="5.10" departSpeed="0.00" departDelay="0.50" arrival="226.00" arrivalLane="1376446260_0" arrivalPos="0.20" arrivalSpeed="15.06" duration="176.00" routeLength="2747.03" waitingTime="0.00" waitingCount="0" stopTime="0.00" timeLoss="33.17" rerouteNo="0" devices="tripinfo_veh99" vType="car" speedFactor="1.09" vaporized=""/>
    <tripinfo id="veh106" depart="53.00" departLane="-1263672512#0_0" departPos="5.10" departSpeed="0.00" departDelay="0.00" arrival="232.00" arrivalLane="-597693449#3_0" arrivalPos="90.29" arrivalSpeed="18.41" duration="179.00" routeLength="3369.06" waitingTime="0.00" waitingCount="0" stopTime="0.00" timeLoss="44.91" rerouteNo="0" devices="tripinfo_veh106" vType="car" speedFactor="0.96" vaporized=""/>