<?xml version="1.0" encoding="UTF-8"?>

<!-- generated on 2026-03-17 23:06:26 by Eclipse SUMO sumo Version 1.24.0
<sumoConfiguration xmlns:xsi="http://www.w3.org/2001/XMLSchema-instance" xsi:noNamespaceSchemaLocation="http://sumo.dlr.de/xsd/sumoConfiguration.xsd">

    <input>
        <net-file value="map.net.xml"/>
        <route-files value="simulation.rou.xml"/>
    </input>

    <output>
        <tripinfo-output value="tripinfo_old.xml"/>
    </output>

    <report>
        <duration-log.statistics value="true"/>
    </report>

</sumoConfiguration>
-->

<tripinfos xmlns:xsi="http://www.w3.org/2001/XMLSchema-instance" xsi:noNamespaceSchemaLocation="http://sumo.dlr.de/xsd/tripinfo_file.xsd">
    <tripinfo id="veh56" depart="28.00" departLane="-597693449#3_0" departPos="5.10" departSpeed="0.00" departDelay="0.00" arrival="47.00" arrivalLane="-597693449#1_0" arrivalPos="40.02" arrivalSpeed="22.11" duration="19.00" routeLength="294.34" waitingTime="0.00" waitingCount="0" stopTime="0.00" timeLoss="5.21" rerouteNo="0" devices="tripinfo_veh56" vType="car" speedFactor="1.02" vaporized=""/>
    <tripinfo id="veh58" depart="29.00" departLane="747493592#1_0" departPos="5.10" departSpeed="0.00" departDelay="0.00" arrival="103.00" arrivalLane="-849424259#1_0" arrivalPos="205.92" arrivalSpeed="22.08" duration="74.00" routeLength="1291.01" waitingTime="0.00" waitingCount="0" stopTime="0.00" timeLoss="15.57" rerouteNo="0" devices="tripinfo_veh58" vType="car" speedFactor="1.00" vaporized=""/>
    <tripinfo id="veh4" depart="2.00" departLane="957060887_0" departPos="5.10" departSpeed="0.00" departDelay="0.00" arrival="106.00" arrivalLane="-817981377#3_0" arrivalPos="94.17" arrivalSpeed="18.81" duration="104.00" routeLength="1367.41" waitingTime="8.00" waitingCount="1" stopTime="0.00" timeLoss="35.58" rerouteNo="0" devices="tripinfo_veh4" vType="car" speedFactor="1.03" vaporized=""/>
    <tripinfo id="veh12" depart="6.00" departLane="-842128447#1_0" departPos="5.10" departSpeed="0.00" departDelay="0.00" arrival="106.00" arrivalLane="-1252047658#1_0" arrivalPos="153.12" arrivalSpeed="23.50" duration="100.00" routeLength="1784.93" waitingTime="0.00" waitingCount="0" stopTime="0.00" timeLoss="28.90" rerouteNo="0" devices="tripinfo_veh12" vType="car" speedFactor="1.05" vaporized=""/>
    <tripinfo id="veh26" depart="13.00" departLane="-1309221437_0" departPos="5.10" departSpeed="0.00" departDelay="0.00" arrival="107.00" arrivalLane="-848727039#5_0" arrivalPos="6.51" arrivalSpeed="13.33" duration="94.00" routeLength="1050.26" waitingTime="3.00" waitingCount="1" stopTime="0.00" timeLoss="20.34" rerouteNo="0" devices="tripinfo_veh26" vType="car" speedFactor="0.87" vaporized=""/>
    <tripinfo id="veh6" depart="3.00" departLane="539178239#5_0" departPos="5.10" departSpeed="0.00" departDelay="0.00" arrival="115.00" arrivalLane="-846228371#0_0" arrivalPos="145.94" arrivalSpeed="14.02" duration="112.00" routeLength="1368.73" waitingTime="0.00" waitingCount="0" stopTime="0.00" timeLoss="15.40" rerouteNo="0" devices="tripinfo_veh6" vType="car" speedFactor="1.05" vaporized=""/>
    <tripinfo id="veh7" depart="4.00" departLane="817981377#14_0" departPos="5.10" departSpeed="0.00" departDelay="0.50" arrival="121.00" arrivalLane="-817981377#7_0" arrivalPos="327.99" arrivalSpeed="23.39" duration="117.00" routeLength="2262.15" waitingTime="0.00" waitingCount="0" stopTime="0.00" timeLoss="23.10" rerouteNo="0" devices="tripinfo_veh7" vType="car" speedFactor="0.89" vaporized=""/>
    <tripinfo id="veh14" depart="7.00" departLane="763019962#1_0" departPos="5.10" departSpeed="0.00" departDelay="0.00" arrival="121.00" arrivalLane="-1308725824#0_0" arrivalPos="162.96" arrivalSpeed="12.65" duration="114.00" routeLength="1672.22" waitingTime="2.00" waitingCount="1" stopTime="0.00" timeLoss="26.28" rerouteNo="0" devices="tripinfo_veh14" vType="car" speedFactor="0.99" vaporized=""/>
    <tripinfo id="veh40" depart="20.00" departLane="763018290_0" departPos="5.10" departSpeed="0.00" departDelay="0.00" arrival="134.00" arrivalLane="1320330289_0" arrivalPos="38.78" arrivalSpeed="24.19" duration="114.00" routeLength="1889.61" waitingTime="0.00" waitingCount="0" stopTime="0.00" timeLoss="22.50" rerouteNo="0" devices="tripinfo_veh40" vType="car" speedFactor="1.10" vaporized=""/>
    <tripinfo id="veh128" depart="64.00" departLane="817981377#6_0" departPos="5.10" departSpeed="0.00" departDelay="0.00" arrival="134.00" arrivalLane="-887054166#0_0" arrivalPos="34.76" arrivalSpeed="12.52" duration="70.00" routeLength="1129.04" waitingTime="0.00" waitingCount="0" stopTime="0.00" timeLoss="22.13" rerouteNo="0" devices="tripinfo_veh128" vType="car" speedFactor="1.10" vaporized=""/>
    <tripinfo id="veh117" depart="59.00" departLane="957052483_0" departPos="5.10" departSpeed="0.00" departDelay="0.50" arrival="142.00" arrivalLane="1309184327_0" arrivalPos="278.54" arrivalSpeed="11.62" duration="83.00" routeLength="880.95" waitingTime="4.00" waitingCount="1" stopTime="0.00" timeLoss="19.72" rerouteNo="0" devices="tripinfo_veh117" vType="car" speedFactor="0.87" vaporized=""/>
    <tripinfo id="veh69" depart="35.00" departLane="887055669#1_0" departPos="5.10" departSpeed="0.00" departDelay="0.50" arrival="146.00" arrivalLane="1306480972#2_0" arrivalPos="34.39" arrivalSpeed="11.96" duration="111.00" routeLength="1480.83" waitingTime="0.00" waitingCount="0" stopTime="0.00" timeLoss="22.74" rerouteNo="0" devices="tripinfo_veh69" vType="car" speedFactor="0.94" vaporized=""/>
    <tripinfo id="veh126" depart="63.00" departLane="539178239#5_0" departPos="5.10" departSpeed="0.00" departDelay="0.00" arrival="147.00" arrivalLane="888474711#2_0" arrivalPos="121.01" arrivalSpeed="14.70" duration="84.00" routeLength="966.75" waitingTime="0.00" waitingCount="0" stopTime="0.00" timeLoss="14.70" rerouteNo="0" devices="tripinfo_veh126" vType="car" speedFactor="1.07" vaporized=""/>
    <tripinfo id="veh87" depart="44.00" departLane="1372011600#1_0" departPos="0.20" departSpeed="0.00" departDelay="0.50" arrival="148.00" arrivalLane="888474711#1_0" arrivalPos="236.56" arrivalSpeed="14.12" duration="104.00" routeLength="1356.65" waitingTime="0.00" waitingCount="0" stopTime="0.00" timeLoss="16.40" rerouteNo="0" devices="tripinfo_veh87" vType="car" speedFactor="1.02" vaporized=""/>
    <tripinfo id="veh80" depart="48.00" departLane="44634825#12_0" departPos="5.10" departSpeed="0.00" departDelay="8.00" arrival="149.00" arrivalLane="-801709800#0_0" arrivalPos="478.38" arrivalSpeed="13.27" duration="101.00" routeLength="1504.32" waitingTime="0.00" waitingCount="0" stopTime="0.00" timeLoss="20.41" rerouteNo="0" devices="tripinfo_veh80" vType="car" speedFactor="0.98" vaporized=""/>
    <tripinfo id="veh15" depart="8.00" departLane="-817981377#5_0" departPos="5.10" departSpeed="0.00" departDelay="0.50" arrival="151.00" arrivalLane="887055668_0" arrivalPos="375.77" arrivalSpeed="11.60" duration="143.00" routeLength="2049.05" waitingTime="0.00" waitingCount="0" stopTime="0.00" timeLoss="28.81" rerouteNo="0" devices="tripinfo_veh15" vType="car" speedFactor="0.93" vaporized=""/>
    <tripinfo id="veh71" depart="36.00" departLane="800789139#1_0" departPos="5.10" departSpeed="0.00" departDelay="0.50" arrival="152.00" arrivalLane="800789138#0_0" arrivalPos="254.60" arrivalSpeed="12.12" duration="116.00" routeLength="1192.88" waitingTime="0.00" waitingCount="0" stopTime="0.00" timeLoss="17.45" rerouteNo="0" devices="tripinfo_veh71" vType="car" speedFactor="0.91" vaporized=""/>
    <tripinfo id="veh18" depart="9.00" departLane="887055667_0" departPos="5.10" departSpeed="0.00" departDelay="0.00" arrival="155.00" arrivalLane="817981377#7_0" arrivalPos="325.45" arrivalSpeed="24.96" duration="146.00" routeLength="2395.92" waitingTime="0.00" waitingCount="0" stopTime="0.00" timeLoss="36.71" rerouteNo="0" devices="tripinfo_veh18" vType="car" speedFactor="0.94" vaporized=""/>
    <tripinfo id="veh79" depart="40.00" departLane="956221994_0" departPos="5.10" departSpeed="0.00" departDelay="0.50" arrival="156.00" arrivalLane="958758865_0" arrivalPos="21.64" arrivalSpeed="12.08" duration="116.00" routeLength="1801.38" waitingTime="0.00" waitingCount="0" stopTime="0.00" timeLoss="20.72" rerouteNo="0" devices="tripinfo_veh79" vType="car" speedFactor="0.96" vaporized=""/>
    <tripinfo id="veh20" depart="10.00" departLane="-801834632_0" departPos="5.10" departSpeed="0.00" departDelay="0.00" arrival="157.00" arrivalLane="-450700266#5_0" arrivalPos="43.79" arrivalSpeed="24.69" duration="147.00" routeLength="2360.02" waitingTime="0.00" waitingCount="0" stopTime="0.00" timeLoss="32.25" rerouteNo="0" devices="tripinfo_veh20" vType="car" speedFactor="1.16" vaporized=""/>
    <tripinfo id="veh90" depart="45.00" departLane="698537399#0_0" departPos="5.10" departSpeed="0.00" departDelay="0.00" arrival="159.00" arrivalLane="888474711#0_0" arrivalPos="38.35" arrivalSpeed="12.56" duration="114.00" routeLength="1720.78" waitingTime="6.00" waitingCount="1" stopTime="0.00" timeLoss="40.00" rerouteNo="0" devices="tripinfo_veh90" vType="car" speedFactor="0.98" vaporized=""/>
    <tripinfo id="veh84" depart="42.00" departLane="-888696116#0_0" departPos="5.10" departSpeed="0.00" departDelay="0.00" arrival="162.00" arrivalLane="-1252047658#2_0" arrivalPos="80.08" arrivalSpeed="19.86" duration="120.00" routeLength="1762.37" waitingTime="16.00" waitingCount="1" stopTime="0.00" timeLoss="53.26" rerouteNo="0" devices="tripinfo_veh84" vType="car" speedFactor="1.09" vaporized=""/>
    <tripinfo id="veh257" depart="129.00" departLane="842128447#0_0" departPos="5.10" departSpeed="0.00" departDelay="0.50" arrival="163.00" arrivalLane="-955975125_0" arrivalPos="125.20" arrivalSpeed="13.32" duration="34.00" routeLength="368.46" waitingTime="0.00" waitingCount="0" stopTime="0.00" timeLoss="5.76" rerouteNo="0" devices="tripinfo_veh257" vType="car" speedFactor="0.97" vaporized=""/>
    <tripinfo id="veh83" depart="42.00" departLane="905715082#3_0" departPos="5.10" departSpeed="0.00" departDelay="0.50" arrival="167.00" arrivalLane="251819185#8_0" arrivalPos="124.09" arrivalSpeed="27.38" duration="125.00" routeLength="2166.25" waitingTime="0.00" waitingCount="0" stopTime="0.00" timeLoss="19.75" rerouteNo="0" devices="tripinfo_veh83" vType="car" speedFactor="1.01" vaporized=""/>
    <tripinfo id="veh2" depart="1.00" departLane="-846228371#2_0" departPos="5.10" departSpeed="0.00" departDelay="0.00" arrival="169.00" arrivalLane="-44634825#9_0" arrivalPos="197.45" arrivalSpeed="27.73" duration="168.00" routeLength="3003.01" waitingTime="0.00" waitingCount="0" stopTime="0.00" timeLoss="19.55" rerouteNo="0" devices="tripinfo_veh2" vType="car" speedFactor="1.01" vaporized=""/>
    <tripinfo id="veh153" depart="77.00" departLane="753822886#0_0" departPos="5.10" departSpeed="0.00" departDelay="0.50" arrival="170.00" arrivalLane="597693449#2_0" arrivalPos="139.62" arrivalSpeed="19.39" duration="93.00" routeLength="1383.12" waitingTime="0.00" waitingCount="0" stopTime="0.00" timeLoss="17.35" rerouteNo="0" devices="tripinfo_veh153" vType="car" speedFactor="0.89" vaporized=""/>
    <tripinfo id="veh22" depart="11.00" departLane="1263672512#2_0" departPos="5.10" departSpeed="0.00" departDelay="0.00" arrival="185.00" arrivalLane="-1306480978_0" arrivalPos="0.87" arrivalSpeed="13.93" duration="174.00" routeLength="3041.37" waitingTime="2.00" waitingCount="1" stopTime="0.00" timeLoss="51.33" rerouteNo="0" devices="tripinfo_veh22" vType="car" speedFactor="1.01" vaporized=""/>
    <tripinfo id="veh164" depart="82.00" departLane="747493593#0_0" departPos="5.10" departSpeed="0.00" departDelay="0.00" arrival="185.00" arrivalLane="842128447#2_0" arrivalPos="42.46" arrivalSpeed="14.55" duration="103.00" routeLength="1838.85" waitingTime="0.00" waitingCount="0" stopTime="0.00" timeLoss="17.74" rerouteNo="0" devices="tripinfo_veh164" vType="car" speedFactor="1.08" vaporized=""/>
    <tripinfo id="veh64" depart="32.00" departLane="-1376428294#0_0" departPos="5.10" departSpeed="0.00" departDelay="0.00" arrival="186.00" arrivalLane="-450700266#4_0" arrivalPos="114.85" arrivalSpeed="23.89" duration="154.00" routeLength="2276.77" waitingTime="18.00" waitingCount="1" stopTime="0.00" timeLoss="65.80" rerouteNo="0" devices="tripinfo_veh64" vType="car" speedFactor="1.08" vaporized=""/>
    <tripinfo id="veh129" depart="65.00" departLane="-857437897_0" departPos="5.10" departSpeed="0.00" departDelay="0.50" arrival="189.00" arrivalLane="-1376446261_0" arrivalPos="8.42" arrivalSpeed="8.22" duration="124.00" routeLength="2014.97" waitingTime="0.00" waitingCount="0" stopTime="0.00" timeLoss="24.69" rerouteNo="0" devices="tripinfo_veh129" vType="car" speedFactor="1.03" vaporized=""/>
    <tripinfo id="veh211" depart="106.00" departLane="27808248#5_0" departPos="5.10" departSpeed="0.00" departDelay="0.50" arrival="189.00" arrivalLane="-817620016_0" arrivalPos="70.24" arrivalSpeed="14.71" duration="83.00" routeLength="793.83" waitingTime="5.00" waitingCount="1" stopTime="0.00" timeLoss="32.60" rerouteNo="0" devices="tripinfo_veh211" vType="car" speedFactor="1.11" vaporized=""/>
    <tripinfo id="veh11" depart="6.00" departLane="958130095_0" departPos="5.10" departSpeed="0.00" departDelay="0.50" arrival="190.00" arrivalLane="-763020805#1_0" arrivalPos="236.60" arrivalSpeed="13.04" duration="184.00" routeLength="2385.48" waitingTime="0.00" waitingCount="0" stopTime="0.00" timeLoss="35.46" rerouteNo="0" devices="tripinfo_veh11" vType="car" speedFactor="1.03" vaporized=""/>
    <tripinfo id="veh288" depart="144.00" departLane="762834594#1_0" departPos="5.10" departSpeed="0.00" departDelay="0.00" arrival="190.00" arrivalLane="-762834594#1_0" arrivalPos="68.92" arrivalSpeed="15.17" duration="46.00" routeLength="491.36" waitingTime="0.00" waitingCount="0" stopTime="0.00" timeLoss="14.28" rerouteNo="0" devices="tripinfo_veh288" vType="car" speedFactor="1.21" vaporized=""/>
    <tripinfo id="veh92" depart="46.00" departLane="817620011_0" departPos="5.10" departSpeed="0.00" departDelay="0.00" arrival="195.00" arrivalLane="1376446263_0" arrivalPos="0.20" arrivalSpeed="9.45" duration="149.00" routeLength="2219.99" waitingTime="0.00" waitingCount="0" stopTime="0.00" timeLoss="33.08" rerouteNo="0" devices="tripinfo_veh92" vType="car" speedFactor="1.04" vaporized=""/>
    <tripinfo id="veh66" depart="33.00" departLane="-887055666#1_0" departPos="5.10" departSpeed="0.00" departDelay="0.00" arrival="196.00" arrivalLane="-817981377#9_0" arrivalPos="22.43" arrivalSpeed="8.97" duration="163.00" routeLength="1822.98" waitingTime="21.00" waitingCount="1" stopTime="0.00" timeLoss="51.74" rerouteNo="0" devices="tripinfo_veh66" vType="car" speedFactor="1.02" vaporized=""/>
    <tripinfo id="veh65" depart="33.00" departLane="-1308725833_0" departPos="5.10" departSpeed="0.00" departDelay="0.50" arrival="197.00" arrivalLane="1309989505#2_0" arrivalPos="67.39" arrivalSpeed="14.97" duration="164.00" routeLength="2268.10" waitingTime="0.00" waitingCount="0" stopTime="0.00" timeLoss="15.38" rerouteNo="0" devices="tripinfo_veh65" vType="car" speedFactor="1.12" vaporized=""/>
    <tripinfo id="veh38" depart="19.00" departLane="-1308725824#0_0" departPos="5.10" departSpeed="0.00" departDelay="0.00" arrival="199.00" arrivalLane="-801709802#3_0" arrivalPos="76.20" arrivalSpeed="12.70" duration="180.00" routeLength="2087.95" waitingTime="0.00" waitingCount="0" stopTime="0.00" timeLoss="22.57" rerouteNo="0" devices="tripinfo_veh38" vType="car" speedFactor="0.97" vaporized=""/>
    <tripinfo id="veh187" depart="94.00" departLane="-957053245#1_0" departPos="5.10" departSpeed="0.00" departDelay="0.50" arrival="200.00" arrivalLane="-747493590#1_0" arrivalPos="22.45" arrivalSpeed="10.92" duration="106.00" routeLength="1570.33" waitingTime="0.00" waitingCount="0" stopTime="0.00" timeLoss="27.49" rerouteNo="0" devices="tripinfo_veh187" vType="car" speedFactor="1.06" vaporized=""/>
    <tripinfo id="veh43" depart="22.00" departLane="-801709799#0_0" departPos="5.10" departSpeed="0.00" departDelay="0.50" arrival="201.00" arrivalLane="763020805#2_0" arrivalPos="89.40" arrivalSpeed="13.28" duration="179.00" routeLength="2566.92" waitingTime="0.00" waitingCount="0" stopTime="0.00" timeLoss="35.66" rerouteNo="0" devices="tripinfo_veh43" vType="car" speedFactor="0.96" vaporized=""/>
    <tripinfo id="veh27" depart="14.00" departLane="-539178239#0_0" departPos="5.10" departSpeed="0.00" departDelay="0.50" arrival="202.00" arrivalLane="817981377#10_0" arrivalPos="71.45" arrivalSpeed="20.23" duration="188.00" routeLength="2448.54" waitingTime="32.00" waitingCount="2" stopTime="0.00" timeLoss="70.11" rerouteNo="0" devices="tripinfo_veh27" vType="car" speedFactor="0.92" vaporized=""/>
    <tripinfo id="veh94" depart="47.00" departLane="-887055669#1_0" departPos="5.10" departSpeed="0.00" departDelay="0.00" arrival="205.00" arrivalLane="817981377#9_0" arrivalPos="23.01" arrivalSpeed="23.10" duration="158.00" routeLength="2316.43" waitingTime="0.00" waitingCount="0" stopTime="0.00" timeLoss="31.69" rerouteNo="0" devices="tripinfo_veh94" vType="car" speedFactor="1.02" vaporized=""/>
    <tripinfo id="veh82" depart="41.00" departLane="1306480965#1_0" departPos="5.10" departSpeed="0.00" departDelay="0.00" arrival="207.00" arrivalLane="-817981377#12_0" arrivalPos="320.73" arrivalSpeed="26.72" duration="166.00" routeLength="2201.89" waitingTime="3.00" waitingCount="2" stopTime="0.00" timeLoss="53.87" rerouteNo="0" devices="tripinfo_veh82" vType="car" speedFactor="0.98" vaporized=""/>
    <tripinfo id="veh8" depart="4.00" departLane="888696116#2_0" departPos="5.10" departSpeed="0.00" departDelay="0.00" arrival="208.00" arrivalLane="-958131016_0" arrivalPos="103.29" arrivalSpeed="11.96" duration="204.00" routeLength="2951.30" waitingTime="11.00" waitingCount="1" stopTime="0.00" timeLoss="58.00" rerouteNo="0" devices="tripinfo_veh8" vType="car" speedFactor="0.94" vaporized=""/>
    <tripinfo id="veh52" depart="26.00" departLane="888696114_0" departPos="5.10" departSpeed="0.00" departDelay="0.00" arrival="208.00" arrivalLane="23314618#4_0" arrivalPos="103.72" arrivalSpeed="19.63" duration="182.00" routeLength="2498.26" waitingTime="0.00" waitingCount="0" stopTime="0.00" timeLoss="34.08" rerouteNo="0" devices="tripinfo_veh52" vType="car" speedFactor="0.85" vaporized=""/>
    <tripinfo id="veh76" depart="38.00" departLane="801834632_0" departPos="5.10" departSpeed="0.00" departDelay="0.00" arrival="208.00" arrivalLane="957057618_0" arrivalPos="187.36" arrivalSpeed="13.01" duration="170.00" routeLength="2156.39" waitingTime="0.00" waitingCount="0" stopTime="0.00" timeLoss="30.92" rerouteNo="0" devices="tripinfo_veh76" vType="car" speedFactor="0.97" vaporized=""/>
    <tripinfo id="veh89" depart="45.00" departLane="753822886#0_0" departPos="5.10" departSpeed="0.00" departDelay="0.50" arrival="208.00" arrivalLane="1306480981_0" arrivalPos="78.67" arrivalSpeed="15.53" duration="163.00" routeLength="2689.42" waitingTime="0.00" waitingCount="0" stopTime="0.00" timeLoss="42.66" rerouteNo="0" devices="tripinfo_veh89" vType="car" speedFactor="1.15" vaporized=""/>
    <tripinfo id="veh60" depart="30.00" departLane="-887055666#2_0" departPos="5.10" departSpeed="0.00" departDelay="0.00" arrival="209.00" arrivalLane="-31857931#10_0" arrivalPos="129.10" arrivalSpeed="18.97" duration="179.00" routeLength="2808.15" waitingTime="0.00" waitingCount="0" stopTime="0.00" timeLoss="25.40" rerouteNo="0" devices="tripinfo_veh60" vType="car" speedFactor="0.90" vaporized=""/>
    <tripinfo id="veh175" depart="88.00" departLane="-849652290#1_0" departPos="5.10" departSpeed="0.00" departDelay="0.50" arrival="209.00" arrivalLane="817621039_0" arrivalPos="53.74" arrivalSpeed="13.63" duration="121.00" routeLength="1020.85" waitingTime="40.00" waitingCount="1" stopTime="0.00" timeLoss="62.83" rerouteNo="0" devices="tripinfo_veh175" vType="car" speedFactor="0.98" vaporized=""/>
    <tripinfo id="veh234" depart="117.00" departLane="1306480972#1_0" departPos="5.10" departSpeed="0.00" departDelay="0.00" arrival="209.00" arrivalLane="849652290#0_0" arrivalPos="90.83" arrivalSpeed="12.97" duration="92.00" routeLength="1250.61" waitingTime="0.00" waitingCount="0" stopTime="0.00" timeLoss="20.44" rerouteNo="0" devices="tripinfo_veh234" vType="car" speedFactor="1.02" vaporized=""/>
    <tripinfo id="veh139" depart="70.00" departLane="-887055666#1_0" departPos="5.10" departSpeed="0.00" departDelay="0.50" arrival="210.00" arrivalLane="-1306480968_0" arrivalPos="28.35" arrivalSpeed="12.59" duration="140.00" routeLength="1979.70" waitingTime="12.00" waitingCount="1" stopTime="0.00" timeLoss="34.74" rerouteNo="0" devices="tripinfo_veh139" vType="car" speedFactor="0.96" vaporized=""/>
    <tripinfo id="veh96" depart="48.00" departLane="848727039#14_0" departPos="5.10" departSpeed="0.00" departDelay="0.00" arrival="211.00" arrivalLane="-835923222#2_0" arrivalPos="93.30" arrivalSpeed="11.20" duration="163.00" routeLength="2887.27" waitingTime="0.00" waitingCount="0" stopTime="0.00" timeLoss="33.39" rerouteNo="0" devices="tripinfo_veh96" vType="car" speedFactor="0.89" vaporized=""/>
    <tripinfo id="veh154" depart="77.00" departLane="-548373984#3_0" departPos="5.10" departSpeed="0.00" departDelay="0.00" arrival="211.00" arrivalLane="958131016_0" arrivalPos="106.64" arrivalSpeed="13.58" duration="134.00" routeLength="2126.61" waitingTime="2.00" waitingCount="1" stopTime="0.00" timeLoss="35.68" rerouteNo="0" devices="tripinfo_veh154" vType="car" speedFactor="1.00" vaporized=""/>
    <tripinfo id="veh3" depart="2.00" departLane="801345977#2_0" departPos="5.10" departSpeed="0.00" departDelay="0.50" arrival="212.00" arrivalLane="-539202878_0" arrivalPos="671.49" arrivalSpeed="14.62" duration="210.00" routeLength="2929.13" waitingTime="0.00" waitingCount="0" stopTime="0.00" timeLoss="30.22" rerouteNo="0" devices="tripinfo_veh3" vType="car" speedFactor="1.08" vaporized=""/>
    <tripinfo id="veh237" depart="119.00" departLane="801709803#1_0" departPos="1.61" departSpeed="0.00" departDelay="0.50" arrival="212.00" arrivalLane="1263672512#2_0" arrivalPos="125.23" arrivalSpeed="21.98" duration="93.00" routeLength="2228.13" waitingTime="0.00" waitingCount="0" stopTime="0.00" timeLoss="26.08" rerouteNo="0" devices="tripinfo_veh237" vType="car" speedFactor="1.24" vaporized=""/>
    <tripinfo id="veh353" depart="177.00" departLane="859009059#1_0" departPos="5.10" departSpeed="0.00" departDelay="0.50" arrival="212.00" arrivalLane="-1376441512_0" arrivalPos="55.53" arrivalSpeed="14.25" duration="35.00" routeLength="392.87" waitingTime="0.00" waitingCount="0" stopTime="0.00" timeLoss="8.12" rerouteNo="0" devices="tripinfo_veh353" vType="car" speedFactor="1.11" vaporized=""/>
    <tripinfo id="veh177" depart="89.00" departLane="251819185#0_0" departPos="5.10" departSpeed="0.00" departDelay="0.50" arrival="213.00" arrivalLane="-801345978#0_0" arrivalPos="58.46" arrivalSpeed="14.80" duration="124.00" routeLength="1653.20" waitingTime="5.00" waitingCount="1" stopTime="0.00" timeLoss="35.58" rerouteNo="0" devices="tripinfo_veh177" vType="car" speedFactor="1.09" vaporized=""/>
    <tripinfo id="veh16" depart="8.00" departLane="-846228371#0_0" departPos="5.10" departSpeed="0.00" departDelay="0.00" arrival="214.00" arrivalLane="1376428300_0" arrivalPos="18.77" arrivalSpeed="11.00" duration="206.00" routeLength="3084.74" waitingTime="0.00" waitingCount="0" stopTime="0.00" timeLoss="22.94" rerouteNo="0" devices="tripinfo_veh16" vType="car" speedFactor="0.88" vaporized=""/>
    <tripinfo id="veh85" depart="43.00" departLane="957060887_0" departPos="5.10" departSpeed="0.00" departDelay="0.50" arrival="214.00" arrivalLane="-1306480973_0" arrivalPos="151.86" arrivalSpeed="14.10" duration="171.00" routeLength="3050.80" waitingTime="0.00" waitingCount="0" stopTime="0.00" timeLoss="33.03" rerouteNo="0" devices="tripinfo_veh85" vType="car" speedFactor="1.03" vaporized=""/>
    <tripinfo id="veh239" depart="123.00" departLane="817981377#4_0" departPos="5.10" departSpeed="0.00" departDelay="3.50" arrival="215.00" arrivalLane="-1376441507_0" arrivalPos="57.13" arrivalSpeed="15.14" duration="92.00" routeLength="978.29" waitingTime="0.00" waitingCount="0" stopTime="0.00" timeLoss="25.10" rerouteNo="0" devices="tripinfo_veh239" vType="car" speedFactor="1.09" vaporized=""/>
    <tripinfo id="veh156" depart="78.00" departLane="-1306480977_0" departPos="5.10" departSpeed="0.00" departDelay="0.00" arrival="217.00" arrivalLane="-956061343_0" arrivalPos="16.43" arrivalSpeed="9.12" duration="139.00" routeLength="2088.75" waitingTime="0.00" waitingCount="0" stopTime="0.00" timeLoss="34.53" rerouteNo="0" devices="tripinfo_veh156" vType="car" speedFactor="1.04" vaporized=""/>
    <tripinfo id="veh261" depart="131.00" departLane="801345981_0" departPos="5.10" departSpeed="0.00" departDelay="0.50" arrival="217.00" arrivalLane="852882801#1_0" arrivalPos="0.20" arrivalSpeed="3.98" duration="86.00" routeLength="1052.46" waitingTime="0.00" waitingCount="0" stopTime="0.00" timeLoss="10.58" rerouteNo="0" devices="tripinfo_veh261" vType="car" speedFactor="0.93" vaporized=""/>
    <tripinfo id="veh210" depart="108.00" departLane="887054166#0_0" departPos="5.10" departSpeed="0.00" departDelay="3.00" arrival="218.00" arrivalLane="-1306480984_0" arrivalPos="9.42" arrivalSpeed="13.27" duration="110.00" routeLength="1509.13" waitingTime="0.00" waitingCount="0" stopTime="0.00" timeLoss="20.34" rerouteNo="0" devices="tripinfo_veh210" vType="car" speedFactor="1.03" vaporized=""/>
    <tripinfo id="veh229" depart="115.00" departLane="1306480982_0" departPos="5.10" departSpeed="0.00" departDelay="0.50" arrival="218.00" arrivalLane="-1306480963_0" arrivalPos="449.15" arrivalSpeed="11.80" duration="103.00" routeLength="1325.67" waitingTime="0.00" waitingCount="0" stopTime="0.00" timeLoss="12.49" rerouteNo="0" devices="tripinfo_veh229" vType="car" speedFactor="0.91" vaporized=""/>
    <tripinfo id="veh124" depart="62.00" departLane="1306480984_0" departPos="5.10" departSpeed="0.00" departDelay="0.00" arrival="219.00" arrivalLane="-859009059#1_0" arrivalPos="108.40" arrivalSpeed="12.95" duration="157.00" routeLength="2115.06" waitingTime="1.00" waitingCount="1" stopTime="0.00" timeLoss="28.89" rerouteNo="0" devices="tripinfo_veh124" vType="car" speedFactor="1.00" vaporized=""/>
    <tripinfo id="veh143" depart="72.00" departLane="-888474709_0" departPos="5.10" departSpeed="0.00" departDelay="0.50" arrival="220.00" arrivalLane="-1372009228_0" arrivalPos="7.21" arrivalSpeed="15.22" duration="148.00" routeLength="2367.73" waitingTime="1.00" waitingCount="1" stopTime="0.00" timeLoss="34.32" rerouteNo="0" devices="tripinfo_veh143" vType="car" speedFactor="1.12" vaporized=""/>
    <tripinfo id="veh198" depart="99.00" departLane="1306480965#0_0" departPos="5.10" departSpeed="0.00" departDelay="0.00" arrival="220.00" arrivalLane="1309221437_0" arrivalPos="224.23" arrivalSpeed="11.54" duration="121.00" routeLength="1098.75" waitingTime="10.00" waitingCount="1" stopTime="0.00" timeLoss="28.47" rerouteNo="0" devices="tripinfo_veh198" vType="car" speedFactor="0.90" vaporized=""/>
    <tripinfo id="veh169" depart="85.00" departLane="-1306480970_0" departPos="5.10" departSpeed="0.00" departDelay="0.50" arrival="221.00" arrivalLane="-763018290_0" arrivalPos="286.66" arrivalSpeed="13.72" duration="136.00" routeLength="1990.68" waitingTime="0.00" waitingCount="0" stopTime="0.00" timeLoss="24.26" rerouteNo="0" devices="tripinfo_veh169" vType="car" speedFactor="0.99" vaporized=""/>
    <tripinfo id="veh149" depart="77.00" departLane="-905715082#1_0" departPos="5.10" departSpeed="0.00" departDelay="2.50" arrival="223.00" arrivalLane="-801834554#2_0" arrivalPos="53.68" arrivalSpeed="11.88" duration="146.00" routeLength="1903.85" waitingTime="0.00" waitingCount="0" stopTime="0.00" timeLoss="23.64" rerouteNo="0" devices="tripinfo_veh149" vType="car" speedFactor="0.94" vaporized=""/>
    <tripinfo id="veh39" depart="20.00" departLane="548373984#5_0" departPos="5.10" departSpeed="0.00" departDelay="0.50" arrival="224.00" arrivalLane="-1376640427#0_0" arrivalPos="75.24" arrivalSpeed="15.14" duration="204.00" routeLength="4750.51" waitingTime="0.00" waitingCount="0" stopTime="0.00" timeLoss="42.35" rerouteNo="0" devices="tripinfo_veh39" vType="car" speedFactor="1.18" vaporized=""/>
    <tripinfo id="veh47" depart="24.00" departLane="539179122#0_0" departPos="5.10" departSpeed="0.00" departDelay="0.50" arrival="226.00" arrivalLane="1306480966#0_0" arrivalPos="88.36" arrivalSpeed="14.30" duration="202.00" routeLength="3137.01" waitingTime="5.00" waitingCount="1" stopTime="0.00" timeLoss="57.16" rerouteNo="0" devices="tripinfo_veh47" vType="car" speedFactor="1.09" vaporized=""/>
    <tripinfo id="veh99" depart="50.00" departLane="-857437897_0" departPos="5.10" departSpeed="0.00" departDelay="0.50" arrival="228.00" arrivalLane="1376446260_0" arrivalPos="0.20" arrivalSpeed="14.98" duration="178.00" routeLength="2707.63" waitingTime="1.00" waitingCount="1" stopTime="0.00" timeLoss="36.78" rerouteNo="0" devices="tripinfo_veh99" vType="car" speedFactor="1.09" vaporized=""/>
    <tripinfo id="veh17" depart="9.00" departLane="539178239#1_0" departPos="0.94" departSpeed="0.00" departDelay="0.50" arrival="232.00" arrivalLane="1309989512_0" arrivalPos="20.08" arrivalSpeed="12.67" duration="223.00" routeLength="3622.13" waitingTime="0.00" waitingCount="0" stopTime="0.00" timeLoss="28.20" rerouteNo="0" devices="tripinfo_veh17" vType="car" speedFactor="0.94" vaporized=""/>